# vtk DataFile Version 3.0
d-3__ created by libgimli-v1.1.0
ASCII
DATASET UNSTRUCTURED_GRID
POINTS 8143 double
-110	-110	0
110	-110	0
110	-110	-154
-110	-110	-154
-110	110	0
110	110	0
110	110	-154
-110	110	-154
-11	-11	-14.2043
11	-11	-14.2043
11	-11	0
-11	-11	0
-11	11	-14.2043
11	11	-14.2043
11	11	0
-11	11	0
-10	-10	0
-5	-10	0
0	-10	0
5	-10	0
10	-10	0
-10	-5	0
-5	-5	0
0	-5	0
5	-5	0
10	-5	0
-10	0	0
-5	0	0
0	0	0
5	0	0
10	0	0
-10	5	0
-5	5	0
0	5	0
5	5	0
10	5	0
-10	10	0
-5	10	0
0	10	0
5	10	0
10	10	0
-10	-10	-2.5
-5	-10	-2.5
0	-10	-2.5
5	-10	-2.5
10	-10	-2.5
-10	-5	-2.5
-5	-5	-2.5
0	-5	-2.5
5	-5	-2.5
10	-5	-2.5
-10	0	-2.5
-5	0	-2.5
0	0	-2.5
5	0	-2.5
10	0	-2.5
-10	5	-2.5
-5	5	-2.5
0	5	-2.5
5	5	-2.5
10	5	-2.5
-10	10	-2.5
-5	10	-2.5
0	10	-2.5
5	10	-2.5
10	10	-2.5
-11	-11	-2.5
11	-110	0
11	-11	-2.5
11	11	-2.5
11	0	0
11	5	0
11	10	0
11	-5	0
11	-10	0
110	0	0
-11	11	-2.5
0	11	0
-5	11	0
-10	11	0
5	11	0
10	11	0
0	110	0
-11	0	0
-11	-5	0
-11	-10	0
-11	5	0
-11	10	0
-110	0	0
0	-11	0
5	-11	0
10	-11	0
-5	-11	0
-10	-11	0
-5.004869331643	-11	-2.430461480318
-9.981759101839	-11	-2.634423076023
0.055766060012	-11	-2.380105690451
4.98567685346	-11	-2.349858890743
9.815611359456	-11	-2.588153459961
-11	0.026120460095	-2.38925362178
-11	-4.892429560345	-2.556717429275
-11	-9.856928559761	-2.604499489287
-11	5.108956209955	-2.461737708954
-11	10.053818948484	-2.605145631405
0.040008046842	11	-2.591207638538
-5.032791656587	11	-2.48581492163
-9.804087515704	11	-2.540338011008
5.011092358304	11	-2.410007551306
10.001433074551	11	-2.650801744075
11	-5.111158125642	-2.34548900125
11	-9.822733550051	-2.499135432869
11	0.069960272042	-2.670142961353
11	4.977178311061	-2.530976649591
11	9.79750100756	-2.564925793002
0.988915901624	-0.401466618618	-14.2043
-2.159050547755	-5.16140178987	-154
68.290989157991	14.359586118424	0
-9.182173006089	67.463247695936	0
-71.81993602827	-15.695958558801	0
-16.120089815245	-64.782043457004	0
39.792209118312	9.392954190754	0
-10.688048776516	34.042259868686	0
-35.528990163277	-6.436197970563	0
-11.329445504895	-38.891936416521	0
9.594098588797	-31.615394188836	0
31.291343480785	-10.214886155574	0
13.498991634332	32.340623444803	0
-33.298155182833	8.231647490086	0
-9.988104228613	-24.644606150173	0
25.594027560808	9.47071912386	0
-11.574064700703	23.876536546112	0
-25.516116293115	-10.4347516955	0
9.974636121496	-22.399717943307	0
21.301931249111	-11.132922167665	0
11.542232131133	22.253767624217	0
-20.612462756339	10.032848501555	0
-10.442495124273	-17.357061931205	0
-11	-11	-8.35215
-11	11	-8.35215
11	11	-8.35215
11	-11	-8.35215
18.45526624081	10.053779040177	0
-11.450410714187	17.504956668898	0
-18.056747743266	-11.558414544602	0
10.562248430463	-16.847843377576	0
16.493290227001	-8.897022196218	0
10.074378812243	16.178439590307	0
-16.395393235674	9.493474973245	0
-9.844362215792	-14.223497495676	0
14.256317601269	10.68878789189	0
-9.847070111757	14.163016086428	0
-14.428801663949	-10.049323956157	0
-11	-11	-5.426075
-11	11	-5.426075
11	11	-5.426075
11	-11	-5.426075
10.604222395346	-13.808517484237	0
13.962892094728	-10.89452436068	0
10.809652302626	13.326409634244	0
-14.044625691881	10.896647674895	0
-2.5	11	0
-1.200199292922	20.539981532775	0
-11	-2.5	0
-20.207792895781	-0.281362609513	0
11	7.5	0
-11	-7.5	0
2.5	-11	0
1.132522473685	-20.714998784682	0
-11	2.5	0
-7.5	11	0
7.5	-11	0
11	2.5	0
21.122166656812	-0.837588778138	0
11	-2.5	0
-2.5	-11	0
11	-7.5	0
2.5	11	0
7.5	11	0
-11	7.5	0
-7.5	-11	0
-17.829422495505	5.063273181277	0
16.689268098339	-3.934674179286	0
-3.157798389008	-17.572868242455	0
3.54174345654	17.567501180149	0
-3.978994075051	16.770864456661	0
-16.003439999473	-3.33037401416	0
16.310679461604	3.257563855227	0
110	-55	0
3.835907662275	-16.964523197703	0
-11	0	-14.2043
0	-11	-14.2043
0	11	-14.2043
11	0	-14.2043
16.185750396761	-13.955890769136	0
27.383140180511	-26.873561771165	0
60.5	-110	0
0	-110	-154
44.43048007763	55.903640855588	0
-49.648072157842	45.549642378939	0
-15.770972045691	-17.935284911803	0
-34.681186154685	-27.632129834249	0
-10.183524776526	-12.24080533478	0
16.436174748861	16.975603279729	0
29.321611256853	28.822707213825	0
-15.466658168443	15.536649053891	0
-27.934119810994	34.49842686519	0
110	-110	-77
33.645199531704	-77.807996016311	0
12.057549311577	10.194455422806	0
13.238230104368	13.583910787663	0
-10.520916884661	12.32990493408	0
-12.627948370196	13.110267259881	0
-12.255236452764	-10.187148830323	0
-12.804352946852	-13.022453067701	0
-6.661765450296	-11	-6.823851957294
-11	6.51414603003	-6.608794195967
6.565167438162	11	-7.255969963766
11	-6.754721597518	-7.035954584988
-110	-55	0
-110	0	-154
-11	-11	-3.9630375
-8.175887781393	-11	-4.902273818577
-11	11	-3.9630375
-11	8.303172927535	-4.84573053263
11	11	-3.9630375
7.93900666287	11	-4.950830994945
11	-11	-3.9630375
11	-8.409872904976	-5.201429642222
-11	-8.131126991718	-4.706194924091
-11	-3.750136807731	-9.573593886165
-7.756638251737	11	-5.001860580685
-2.827157405684	11	-8.270857257804
11	8.610850924026	-5.12999296891
11	2.750048726052	-9.500318484382
8.274784049613	-11	-4.730999700288
2.952496453214	-11	-9.071616679161
-8.293850949485	-12.861248921928	0
110	0	-154
50.413377189272	-110	-84.355232993336
-110	-21.760912230653	-80.819637892959
110	-12.230016483855	-87.356792749181
-14.544118276929	6.711659909039	0
-14.980374943623	0.976551424846	0
14.342137994128	-6.451683859204	0
14.440956862088	-1.748976885903	0
-1.722305234517	-14.284544939635	0
6.428698522476	14.495359590139	0
1.597444231963	14.536153997404	0
10.623543395247	-12.124147239515	0
12.50111981348	-12.535161383536	0
12.088973610115	-10.299979625587	0
13.000576595883	-8.512449710794	0
10.211841122704	11.909516255949	0
8.643170410876	12.916406410379	0
-12.131684460771	10.401108730644	0
-13.039881151038	8.601329268764	0
-11	-11	-1.25
11	-11	-1.25
-11	11	-1.25
11	11	-1.25
-3.75	11	0
-2.854292412877	13.998420980271	0
-3.215520554776	11	-1.689667865568
-1.25	11	0
-0.546410505567	13.047293447236	0
-1.485941949916	8.847623000961	0
-11	-3.75	0
-13.453433107488	-3.346308547866	0
-11	-3.161512262017	-1.692693135011
-11	-1.25	0
-12.999445497759	-1.208049602606	0
-9.538421716503	-1.859455360525	0
11	6.25	0
13.951283126251	5.246071369635	0
9.11721496716	6.9992241413	0
12.733553368796	6.71684500169	0
15.515777346765	7.316554589463	0
11	8.75	0
11	8.094179597793	-1.671917541091
-11	-8.75	0
-12.993233616737	-7.99419337077	0
-11	-8.158323382517	-1.695854082106
-11	-6.25	0
-13.806596096988	-5.476397707617	0
-9.224939467167	-6.73554640456	0
1.25	-11	0
0.629634305337	-12.997621522854	0
2.105838944291	-8.520126080864	0
3.75	-11	0
2.92870964454	-14.032903238083	0
3.269020091904	-11	-1.604159757378
-11	1.25	0
-11	1.786825363627	-1.62100477454
-12.300087905864	2.197028041859	0
-11	3.75	0
-13.37760711593	4.25829183381	0
-8.469270829822	2.9742777851	0
-8.75	11	0
-7.758389901923	13.64476396999	0
-8.158670993193	11	-1.652285218895
-6.25	11	0
-5.442170988874	13.673054472029	0
-6.859585970652	9.092574753123	0
6.25	-11	0
5.550496612934	-14.289164246934	0
6.986409950657	-9.158030842229	0
8.75	-11	0
8.239826894213	-14.233862986506	0
8.120568275833	-11	-1.646931372793
11	1.25	0
13.345647512182	0.84468614679	0
9.224359971935	1.509639330139	0
11	3.75	0
13.161733552908	3.401676906767	0
11	3.223700057311	-1.758402794227
11	-3.75	0
13.17630357729	-4.160954854966	0
8.845249448613	-3.521693876247	0
11	-1.25	0
11	-2.259573951156	-1.764045849067
12.192327312777	-1.793200270469	0
-3.75	-11	0
-4.338079107082	-14.118640464877	0
-2.924321518515	-8.52031813788	0
-3.03609363717	-12.498500339672	0
-1.25	-11	0
-1.697499176172	-11	-1.578624930089
11	-8.75	0
9.204392252705	-8.264335040134	0
11	-6.25	0
11	-6.705977010771	-1.656552756551
1.25	11	0
1.777176051215	11	-1.701045424272
1.780490754982	12.209398521191	0
3.75	11	0
3.799901813211	13.625444074413	0
3.580023334579	8.865035339898	0
6.25	11	0
6.803726299237	11	-1.59567990723
8.75	11	0
8.262119507769	9.218730626904	0
-11	6.25	0
-11	6.78656808341	-1.667376450872
-11	8.75	0
-9.17350825047	8.24691647455	0
-8.75	-11	0
-8.353870953437	-9.072910785961	0
-6.25	-11	0
-6.83804450071	-11	-1.630875262073
25.85601321154	-52.242967052591	0
71.753781232154	-46.277600369654	0
51.581109813505	-28.380984273462	0
7.271738251117	-17.2938848647	0
12.277830994967	-6.373355974584	0
6.837274546725	12.342826366512	0
-12.317958443518	6.408927443897	0
77.096935733566	-19.878435128264	0
-4.617402887586	11	-1.131701353439
-12.860683589163	-7.109807300008	-3.070667556049
-1.184794253157	-27.965981697622	-11.515559748261
-8.344383380757	8.121248732261	-2.225859553268
-2.458678854304	12.097808367315	0
-4.771680215453	-12.107744835941	0
11	-0.575379592621	-1.429520530143
-5.391708376511	-11	-1.108301907398
11	-5.405513575114	-1.100406418415
-14.975942816545	10.883121934803	-3.010900634119
11	-6.375390656627	-4.710013492459
11	-2.270209457066	-6.717400117686
8.327882006409	11	-2.966846730407
18.513469228623	7.580059998328	-6.408688311273
-8.165378837044	-8.348997184491	-2.931726543623
-2.5	2.5	0
-6.869751424538	11	-3.008647079328
-4.991402457457	11	-5.691849439348
14.301715447375	-8.640274895882	-3.364334595494
-0.12661110173	-17.658483329175	-6.065273622299
-13.305834288584	-17.735327663095	-4.220708677729
-11	-1.41026118559	-1.389005571279
-11	-1.596368890467	-4.629781464245
-11	2.113497921828	-7.031936496866
-11	-4.558023840189	-1.126709997164
11	-3.925688653576	-1.200693900895
11	-2.797140391042	-4.017204451375
-25.134213154281	20.143368842372	-13.531312892032
0	110	-154
-11	-7.503660261283	-8.32423306598
-11	-5.5	-14.2043
14.831457432602	-12.611103709204	-3.600496489853
-11	3.835195987438	-1.225500135778
-11	3.061289959016	-4.722960385982
-12.023428868645	17.627772208965	-7.183986349318
1.220699174791	11	-8.065680653229
2.229833222496	11	-5.017866522219
6.401985643569	-11	-1.358047288169
15.363516747224	12.554112113917	-4.07612737278
-2.007062468514	16.858846387773	-4.094449545546
1.370843685119	11	-3.424861094038
-0.356902797281	11	-4.957706133615
3.272318149126	11	-3.180010719729
[...]
CELL_DATA 43416
SCALARS _Attribute double 1
LOOKUP_TABLE default
11.033386803172 11.033386803172 11.033386803172 11.033386803172 11.033386803172 11.033386803172 11.033386803172 11.033386803172 8.2123154796898 9.6109405268457 10.147526460638 9.8859928335568 9.9792281440912 9.9792281440912 8.078938513407 9.339348405904 7.8204266969213 7.8204266969213 7.8204266969213 7.8204266969213 7.8204266969213 7.8204266969213 7.8204266969213 7.8204266969213 9.8380908681729 9.8380908681729 9.8380908681729 9.8380908681729 9.8380908681729 9.8380908681729 9.8380908681729 9.8380908681729 17.26916567308 17.26916567308 16.019321668033 16.585304674862 14.912867433496 14.846387722585 14.447055944093 14.780661657652 3.4145181509576 3.4145181509576 3.4145181509576 3.4145181509576 3.4145181509576 3.4145181509576 3.4145181509576 3.4145181509576 7.8721206174873 7.8721206174873 7.8721206174873 7.8721206174873 7.8721206174873 7.8721206174873 7.8721206174873 7.8721206174873 7.3583590106846 7.4070097595598 7.4672790043437 7.4672790043437 7.4672790043437 7.5170044907526 7.5522210224633 7.5170044907526 2.6564469042238 2.6564469042238 2.6564469042238 2.6564469042238 2.6564469042238 2.6564469042238 2.6564469042238 2.6564469042238 5.5913280998522 5.5897440709849 5.7204409113242 5.5897440709849 5.6110732341047 5.6110732341047 5.5897440709849 5.5897440709849 7.522283065005 7.522283065005 7.522283065005 7.522283065005 7.522283065005 7.522283065005 7.522283065005 7.522283065005 5.0029240678561 4.9657077308997 5.0009289131723 4.9657077308997 5.0502510346601 5.0029240678561 5.0029240678561 5.0029240678561 15.287764209965 15.287764209965 15.287764209965 15.287764209965 15.287764209965 15.287764209965 15.287764209965 15.287764209965 6.0381817293819 6.0381817293819 6.0381817293819 6.0381817293819 6.0381817293819 6.0381817293819 6.0381817293819 6.0381817293819 8.5885256218645 8.5885256218645 8.5885256218645 8.5885256218645 8.5885256218645 8.5885256218645 8.5885256218645 8.5885256218645 16.043016658142 15.484777609871 15.552889823689 15.552889823689 14.943791857567 15.390566761173 15.320607716376 15.432337052667 9.2922240905784 12.696762545617 12.863960910859 12.682585238434 12.698878575462 12.698878575462 12.698878575462 12.698878575462 5.4265384941615 5.707299150829 5.5397278058652 5.5397278058652 5.50367289896 5.6402376545866 5.9250263673422 5.6722114248535 14.506231695146 14.141426416206 14.506231695146 14.506231695146 14.506231695146 14.506231695146 11.105479189713 13.330512226802 4.172359987034 3.9150502932897 3.7961462305223 3.7515845699804 3.7258096144386 3.7515845699804 3.8714510201451 3.9150502932897 7.2945646608466 7.2945646608466 7.2945646608466 7.2945646608466 7.2945646608466 7.2945646608466 7.2945646608466 7.2945646608466 13.719264111771 13.112587116736 14.589995066427 13.401745257148 12.803977149139 12.826412387709 12.812792349116 12.820295658499 3.2912987015269 3.2912987015269 3.2912987015269 3.2912987015269 3.2912987015269 3.2912987015269 3.2912987015269 3.2912987015269 4.2748393779237 4.2748393779237 4.2748393779237 4.2748393779237 4.2748393779237 4.2748393779237 4.2748393779237 4.2748393779237 7.1532949668368 7.1532949668368 7.1532949668368 7.1532949668368 7.0216151680032 7.0216151680032 7.1532949668368 7.1532949668368 11.861444802223 11.861444802223 11.861444802223 11.861444802223 11.861444802223 11.861444802223 11.861444802223 11.861444802223 6.6190529767812 6.6190529767812 6.6190529767812 6.6190529767812 6.6190529767812 6.6190529767812 6.7966781764951 6.7966781764951 14.257480027945 14.257480027945 14.257480027945 14.257480027945 14.257480027945 14.257480027945 14.257480027945 14.257480027945 7.003775591382 7.003775591382 7.003775591382 7.003775591382 7.003775591382 7.003775591382 7.003775591382 7.003775591382 7.0871979100354 7.0653802425497 7.0653802425497 7.0653802425497 7.0653802425497 7.0653802425497 6.7142164122815 7.0653802425497 7.3547823759191 7.3547823759191 7.3547823759191 7.3547823759191 7.3547823759191 7.3547823759191 7.3547823759191 7.3547823759191 13.491043083509 13.491043083509 13.899715796857 13.49104354169 13.491043317718 13.491043317718 13.392828247448 13.491043083509 5.9426307382796 5.9426307382796 5.9426307382796 5.9426307382796 5.9426307382796 5.9426307382796 5.9426307382796 5.9426307382796 5.595410943842 5.595410943842 5.595410943842 5.595410943842 5.595410943842 5.595410943842 5.595410943842 5.595410943842 6.2246982391862 6.2246982391862 6.2246982391862 6.2246982391862 6.2246982391862 6.2246982391862 6.2246982391862 6.2246982391862 14.265805268592 14.265805268592 14.265805268592 14.265805268592 14.265805268592 14.265805268592 14.265805268592 14.265805268592 7.4271131142295 7.6308737535103 7.7684266156615 7.7300964143911 7.7512818688262 7.824328556092 7.974604731459 7.824328556092 9.0383439336715 9.0383439336715 9.0383439336715 9.0383439336715 9.0383439336715 9.0383439336715 8.9728276038414 8.9728276038414 8.1076934217251 8.1076934217251 8.1076934217251 8.1076934217251 8.1076934217251 8.1076934217251 8.1076934217251 8.1076934217251 6.1572244743936 6.1572244743936 5.918312000714 6.0500481504887 6.0617340998685 6.0432701336529 6.0496200400265 6.1572244743936 3.7300199599896 3.7300199599896 3.7300199599896 3.7300199599896 3.7300199599896 3.7300199599896 3.7300199599896 3.7300199599896 5.8167547811539 5.8167547811539 5.8167547811539 5.8167547811539 5.8167547811539 5.8167547811539 5.8167547811539 5.8167547811539 6.2953679996657 6.2953679996657 6.231723520266 6.231723520266 6.4686140330029 6.440528690592 6.4047474938282 6.4047474938282 13.421827548522 13.338679960607 13.031494328033 13.031494328033 13.031494328033 13.031494328033 13.078124943471 13.150412803392 5.7312632148209 5.7312632148209 5.7312632148209 5.7312632148209 5.7312632148209 5.7312632148209 5.7312632148209 5.7312632148209 7.7559068309439 7.9828518833695 8.2957997479754 8.2957997479754 8.8316085118331 8.5668313652659 8.175242761202 8.2134290581268 3.6073280310646 3.6073280310646 3.6073280310646 3.6073280310646 3.6073280310646 3.6073280310646 3.5953019048976 3.5953019048976 6.3370413612286 6.3370413612286 6.3370413612286 6.3370413612286 6.3370413612286 6.3370413612286 6.3370413612286 6.3370413612286 12.734069839026 12.734069839026 12.734069839026 12.734069839026 12.734069839026 12.734069839026 12.734069839026 12.734069839026 8.043778305837 8.1806910768373 7.9002064867696 8.2496137338527 8.3148529399501 8.3148529399501 8.3148529399501 8.3148529399501 6.0107882426027 6.0107882426027 6.0107882426027 6.0107882426027 6.0107882426027 6.0107882426027 6.0107882426027 6.0107882426027 5.6245124712194 5.7497760357961 5.4946898709419 5.7497760357961 5.4705822496611 5.6245124712194 5.6245124712194 5.6245124712194 6.3620366228807 6.3620366228807 6.3620366228807 6.3620366228807 6.3620366228807 6.3620366228807 6.3620366228807 6.3620366228807 6.6650948397583 6.6650948397583 6.6650948397583 6.6650948397583 6.6650948397583 6.6650948397583 6.6650948397583 6.6650948397583 4.897729686707 4.897729686707 4.897729686707 4.897729686707 5.0439943975238 5.0439943975238 4.897729686707 4.897729686707 11.832019590943 12.263322332466 12.673420762869 12.424708973175 12.143463152718 12.424708973175 12.263322332466 12.263322332466 15.195311939392 15.195311939392 15.105539676091 15.358170243916 14.799528466765 15.369906799866 15.310893418729 15.310893418729 5.3690592068248 5.3690592068248 5.3690592068248 5.3690592068248 5.3690592068248 5.3690592068248 5.3690592068248 5.3690592068248 12.605739311155 12.488720469172 12.348864516943 12.488720469172 12.488720469172 12.488720469172 12.840061884187 12.488720469172 15.911045039571 14.975934578227 14.89022180656 14.93071726952 14.639540673192 14.639540673192 14.533727159563 14.753998531926 5.828391452972 5.828391452972 5.828391452972 5.828391452972 5.828391452972 5.828391452972 5.828391452972 5.828391452972 6.1152435582595 6.1152435582595 6.1152435582595 6.1152435582595 6.3687653697232 6.3687653697232 6.1152435582595 6.1152435582595 8.9094584990514 8.9094584990514 8.1594479975864 8.2629370293256 8.4300199114311 8.4019636521801 8.9617589951244 8.5349148851766 8.6598782345437 8.5988503947136 8.4817723517043 8.5624658671348 8.8397065609391 8.5792357330979 8.5695436044225 8.5988503947136 12.910192708856 12.915660442162 11.812405418624 12.893504084483 12.729573084991 12.893504084483 12.907144465232 12.907144465232 12.820037416142 12.820037416142 12.467510846746 12.041699249816 12.994484492669 12.718652410583 12.840906676283 12.718652410583 14.246695994629 14.246695994629 14.256103417214 14.246695994629 14.246695994629 14.246695994629 14.246695994629 14.246695994629 15.042019653025 15.042019653025 14.401855234248 14.401855234248 14.484266448434 14.401855234248 14.975755362662 15.289077783443 3.6594448924467 3.6594448924467 3.6594448924467 3.6594448924467 3.6594448924467 3.6594448924467 3.6594448924467 3.6594448924467 9.7342606825012 10.0743336626 10.615841332028 10.0743336626 10.615841332027 10.615841332027 11.202626564243 10.615841332027 14.316143177456 14.367285458671 13.661290219881 14.362127776256 14.212319105193 14.362127776256 14.523945328485 14.443733506941 3.2770129133016 3.2770129133016 3.2770129133016 3.2770129133016 3.2770129133016 3.2770129133016 3.2770129133016 3.2770129133016 8.9221099998931 8.9221099998931 8.9221099998931 8.9221099998931 8.9221099998931 8.9221099998931 8.9221099998931 8.9221099998931 13.031494328033 13.019859398411 12.951191435999 12.951191435999 12.951191435999 12.951191435999 13.031494328033 13.020953456814 10.479564442046 10.479564442046 10.479564442046 10.479564442046 10.479564442046 10.479564442046 10.479564442046 10.479564442046 9.7795521839749 9.7795521839749 9.5928548252633 9.5928548252633 9.7795521839749 9.7795521839749 9.7795521839749 9.7795521839749 13.421827548522 13.421827548522 13.421827548522 13.421827548522 13.421827548522 13.421827548522 13.421827548522 13.421827548522 4.4847027846408 4.4847027846408 4.4847027846408 4.4847027846408 4.4847027846408 4.4847027846408 4.4847027846408 4.4847027846408 4.1171684156731 4.1171684156731 4.4500230908148 4.4500230908148 4.8315642015919 4.8315642015919 4.4500230908148 4.4500230908148 6.411790686316 6.411790686316 6.411790686316 6.411790686316 6.411790686316 6.411790686316 6.411790686316 6.411790686316 8.3148529399501 8.3148529399501 8.3148529399501 8.3148529399501 8.3148529399501 8.3148529399501 8.3148529399501 8.3148529399501 5.410587422513 5.410587422513 5.410587422513 5.410587422513 5.410587422513 5.410587422513 5.410587422513 5.410587422513 4.9255622946874 4.9255622946874 4.9255622946874 4.9255622946874 4.9255622946874 4.9255622946874 4.9255622946874 4.9255622946874 16.199904095154 16.199904095154 16.199904095154 16.199904095154 16.199904095154 16.199904095154 16.199904095154 16.199904095154 13.421827548522 13.348260073513 13.421827548522 13.335100757719 13.299873333926 13.273710358504 13.264912978465 13.273710358504 8.530240719885 8.530240719885 8.530240719885 8.530240719885 8.530240719885 8.530240719885 8.530240719885 8.530240719885 13.490766407963 13.490766407963 13.490766407963 13.490766407963 13.490766407963 13.490766407963 13.490766407963 13.490766407963 6.5642945719384 6.5642945719384 6.5642945719384 6.5642945719384 6.5642945719384 6.5642945719384 6.5642945719384 6.5642945719384 11.931824234555 14.148516121126 11.931824234555 13.745294198447 15.164847968676 15.164847968676 14.523426767818 14.523426767818 11.666949026659 11.666949026659 11.666949026659 11.084473295708 10.419243230297 11.084473295708 12.442351151478 11.666949026659 14.230725772992 14.230725772992 14.230725772992 14.230725772992 14.232008925456 14.230725772992 14.230725772992 14.230725772992 10.71398725907 10.71398725907 10.71398725907 10.71398725907 10.71398725907 10.71398725907 10.71398725907 10.71398725907 14.597776563598 14.591137219848 14.538712090093 14.538712090093 14.577266351009 14.577246485279 14.574485932039 14.57722883052 12.596570785994 12.596570785994 12.596570785994 12.991148092794 13.212508042163 12.991148092794 12.200486916047 12.596570785994 6.7291070660476 6.7291070660476 6.6608894087407 6.6608894087407 6.9094796102452 6.8097429609171 6.9508283680232 6.8392740800176 6.5963251940466 6.5963251940466 6.5963251940466 6.5963251940466 6.5963251940466 6.5963251940466 6.5963251940466 6.5963251940466 12.127449902988 10.957453239067 11.816390989602 11.577088497949 11.057082570471 11.057082570471 10.625787201564 10.578530510351 6.9225806357347 6.7697149424677 6.1999262910873 6.3523345474552 6.5583707958865 6.4511193711112 6.688716413217 6.688716413217 9.3279089297022 9.3279089297022 9.3279089297022 9.3279089297022 9.3279089297022 9.3279089297022 9.3279089297022 9.3279089297022 3.9352060108848 3.9352060108848 3.9352060108848 3.9352060108848 3.9352060108848 3.9352060108848 3.9352060108848 3.9352060108848 9.1971760540184 9.1971760540184 9.1971760540184 9.1971760540184 9.1971760540184 9.1971760540184 9.1971760540184 9.1971760540184 14.78654456845 14.944075093756 15.726080339848 14.944075093756 14.597776563598 15.208011742293 15.353703699188 15.208011742293 10.96009873231 10.96009873231 15.368866889754 15.249888732085 15.175763846783 15.175763846783 10.96009873231 10.96009873231 5.8509832991413 5.8509832991413 5.8509832991413 5.8509832991413 5.8509832991413 5.8509832991413 5.8509832991413 5.8509832991413 5.2093143102047 5.2093143102047 5.2093143102047 5.2093143102047 5.2093143102047 5.2093143102047 5.2093143102047 5.2093143102047 5.4132977591646 5.4132977591646 5.4132977591646 5.4132977591646 5.4132977591646 5.4132977591646 5.4132977591646 5.4132977591646 14.265805268592 14.265805268592 14.126857571395 14.370512476819 14.370512476819 14.370512476819 14.265805268592 14.265805268592 14.580679571935 14.580679571935 14.581811672268 14.603763360093 14.613870115076 14.59408414459 14.553414506279 14.586496288014 14.041394423313 14.041394423313 14.041394423313 14.041394423313 14.041394423313 14.041394423313 14.041394423313 14.041394423313 6.6974068146399 6.8565544294321 6.9180308176888 7.2677482638227 8.8861932273214 7.6901449189575 6.8799108073579 6.8799108073579 8.8794644769803 8.8794644769803 8.8232368982611 8.8232368982611 8.8232368982611 8.8232368982611 8.8232368982611 8.8232368982611 9.2504809108978 9.2504809108978 9.2504809108978 9.2504809108978 9.2504809108978 9.2504809108978 9.2504809108978 9.2504809108978 5.2093143102047 5.2093143102047 5.2093143102047 5.2093143102047 5.2093143102047 5.2093143102047 5.1315778027858 5.1315778027858 8.1884777682057 8.1884777682057 8.1884777682057 8.1884777682057 8.1884777682057 8.1884777682057 8.1884777682057 8.1884777682057 14.491779129102 14.478189130754 14.508305736649 14.48472829013 14.428535513214 14.460981028543 14.455463396917 14.455463396917 9.0219245764019 9.0219245764019 9.0219245764019 9.0219245764019 9.0219245764019 9.0219245764019 9.0219245764019 9.0219245764019 13.421827548522 13.421827548522 13.421827548522 13.421827548522 11.745612636376 12.95890131298 13.452648932884 13.435508672915 8.3535986702412 8.4862225839256 8.8628690058335 8.8628690058335 9.2400163540676 9.0139723667256 8.8738861774708 8.8738861774708 7.6368790312612 7.6368790312612 7.4577587869075 7.4577587869075 7.254943819908 7.254943819908 8.3617298158946 8.0175766717981 14.88153823812 15.919164202333 14.519715383048 14.519715383048 13.663480167814 13.663480167814 15.868259006799 15.89354582088 4.7017305341328 4.7017305341328 4.7017305341328 4.7017305341328 4.7017305341328 4.7017305341328 4.7017305341328 4.7017305341328 6.1357238535254 6.1357238535254 6.1357238535254 6.1357238535254 6.1357238535254 6.1357238535254 6.1357238535254 6.1357238535254 7.6609314445928 7.5004536554855 7.3181725052113 7.3181725052113 6.8128242827484 6.8128242827484 7.3181725052113 7.3181725052113 16.794252827816 16.794252827816 16.794252827816 16.794252827816 16.794252827816 16.794252827816 16.794252827816 16.794252827816 14.597776563598 14.597776563598 15.983368330178 15.125594032585 15.320844675821 15.698815261356 16.198208555364 15.838356939474 8.9668562568507 8.9668562568507 8.9668562568507 8.9668562568507 8.9668562568507 8.9668562568507 8.9668562568507 8.9668562568507 8.802557278366 8.802557278366 8.802557278366 8.802557278366 8.802557278366 8.802557278366 8.802557278366 8.802557278366 8.8692278155787 8.8692278155787 8.8692278155787 8.8692278155787 8.8839064813875 8.8839064813875 8.8692278155787 8.8692278155787 14.661139724435 14.661139724435 13.737163624517 13.737163624517 14.196951513037 13.893089538409 14.202641360983 14.661139724435 3.33876040676 3.33876040676 3.33876040676 3.33876040676 3.33876040676 3.33876040676 3.33876040676 3.33876040676 8.9043064060071 8.9043064060071 8.9043064060071 8.9043064060071 8.9043064060071 8.9043064060071 8.9043064060071 8.9043064060071 12.110534320166 12.110534320166 12.110534320166 12.110534320166 12.110534320166 12.110534320166 12.110534320166 12.110534320166 3.7060263018019 3.665165077562 4.3644504434466 4.3644504434466 4.8039532492427 4.5381528894123 4.0561192202307 4.0178286949818 14.078201894762 14.078201894762 14.095316518217 14.095316518217 14.107660530684 14.107660530684 14.080989932273 14.080989932273 13.421827548522 13.421827548522 13.421827548522 13.421827548522 13.421827548522 13.421827548522 13.421827548522 13.421827548522 14.501789302726 14.656445830973 15.697099629574 14.836024327526 14.551665310988 14.836024327526 14.686313469143 14.686313469143 15.318194678542 15.757305695621 15.337910446217 15.337910446217 14.940058001996 15.337910446217 16.198208555364 15.556465890983 3.6626693939668 3.6626693939668 3.33876040676 3.681642971021 3.8739000846044 3.7798901112767 3.6626693939668 3.6626693939668 3.6328346324481 3.678877149774 3.6328346324481 3.6328346324481 3.5809538670502 3.6328346324481 3.7201760206039 3.678877149774 4.4921532838094 4.1850472355575 3.9274186353259 4.1123862833306 4.1428906905325 4.255601775307 4.3635295323603 4.255601775307 3.9562483997544 3.8048090879597 3.6725024267035 3.7807247248797 3.8081499043517 3.7037614762242 3.3251928309046 3.8300950917776 12.932938979374 12.932938979374 12.682011398281 12.682011398281 12.682011398281 12.682011398281 13.123416932419 12.932938979374 13.946911463152 16.287256960577 15.623868399457 16.030100100778 15.189809245972 16.356508693896 16.7114747113 16.538486197404 14.574485932039 14.574485932039 14.574485932039 14.574485932039 14.574485932039 14.574485932039 14.574485932039 14.574485932039 5.4164819779689 5.4164819779689 5.489381339165 5.5119331234205 5.5388287933853 5.4164907722155 5.4164819779689 5.4164907722155 4.9958110833221 4.9958110833221 4.9958110833221 4.9958110833221 4.9958110833221 4.9958110833221 4.9958110833221 4.9958110833221 6.3305510385364 6.3305510385364 6.3305510385364 6.3305510385364 6.3305510385364 6.3305510385364 6.3305510385364 6.3305510385364 6.5037269437615 6.5037269437615 6.5037269437615 6.5037269437615 6.5037269437615 6.5037269437615 6.5037269437615 6.5037269437615 16.7114747113 16.7114747113 16.7114747113 16.7114747113 16.7114747113 16.7114747113 17.172799619017 16.7114747113 4.5398330172171 4.5398330172171 4.5398330172171 4.5398330172171 4.5398330172171 4.5398330172171 4.5398330172171 4.5398330172171 2.9612793444714 2.9612793444714 2.9612793444714 2.9612793444714 2.9612793444714 2.9612793444714 2.9612793444714 2.9612793444714 5.8069943370195 5.8069943370195 5.8069943370195 5.8069943370195 5.8069943370195 5.8069943370195 5.7811156175472 5.8069943370195 4.2654357185584 4.2654357185584 4.2654357185584 4.2654357185584 4.2654357185584 4.2654357185584 4.2654357185584 4.2654357185584 6.6321690605017 6.6321690605017 6.6321690605017 6.6321690605017 6.6321690605017 6.6321690605017 6.6321690605017 6.6321690605017 14.523426767818 14.523426767818 14.523426767818 14.523426767818 12.324499824215 12.721623623843 11.87508064035 11.87508064035 10.431511975979 10.431511975979 11.33242522196 10.333784820797 9.9131353526521 10.231303440119 10.431511975979 10.431511975979 14.053535189968 14.053535189968 14.053535189968 14.053535189968 13.892485798757 14.053535189968 14.053535189968 14.053535189968 