# vtk DataFile Version 3.0
d-3__ libgimli-v1.1.0: I=3 lam=1 wz=0.05 rrms=95.4352% chi^2=484.583
ASCII
DATASET UNSTRUCTURED_GRID
POINTS 488 double
2.056098588435	-5.046854818664	-6.535842662675
2.952496453214	-11	-9.071616679161
6.618679758214	-6.085967230734	-10.139427474564
5.921466559117	-8.56281341256	-6.579852406563
-6.589772086175	8.817693974959	-5.032836255414
-7.456424766767	11	-8.531530613648
-8.269125497403	7.677180691964	-8.800106381944
-9.373513980084	11	-6.50998018986
11	-9.623359386581	-1.065371683303
9.204392252705	-8.264335040134	0
11	-8.75	0
11	-8.417487255696	-1.441524244981
10	10	0
10	10	-2.5
8.954208646248	11	-1.212187388043
11	9.523198680788	-1.115828158078
10	0	0
11	0	0
11	-1.25	0
11	-0.575379592621	-1.429520530143
11	0	-14.2043
11	2.750048726052	-9.500318484382
7.464567985486	0.051704139931	-7.835158067459
11	-1.47686794996	-10.09281414796
0	0	0
5	0	0
5	0	-2.5
3.251159637515	2.49970172174	0
-11	3.75	0
-10	5	0
-8.469270829822	2.9742777851	0
-11	3.835195987438	-1.225500135778
-10	0	-2.5
-9.538421716503	-1.859455360525	0
-8.753043453279	-2.333754178184	-2.281265590866
-8.338803398701	-0.195492269697	0
3.926950273557	8.429587983656	-5.434710690593
7.573013910667	4.192445991868	-5.478220440327
2.719327598846	6.976577021744	-9.799821050214
8.085323449398	7.437044290467	-8.350717684539
2.571059227139	9.147381449944	-2.616019466683
1.66892008996	9.671300202883	0
3.551520487731	11	-1.423834688183
1.777176051215	11	-1.701045424272
11	-9.822733550051	-2.499135432869
10	-10	-2.5
11	-11	-2.5
11	-11	-1.25
6.964944485764	-9.018768084093	-2.060588117181
9.158437334364	-7.427672813074	-1.837158939527
8.44985025903	-9.830260403807	0
-7.737478180165	-0.951312666993	-6.928375267817
-11	-3.6637968465	-5.776117842308
-9.161828177958	-0.92653104664	-4.344833718125
-11	-0.864283582608	-7.018625919073
6.573305384191	-11	-2.847240682639
4.812362618405	-8.949821680236	-4.451818358765
5	-10	-2.5
-5	0	-2.5
-5	0	0
0	0	-2.5
-2.5	2.5	0
5	-5	0
5	-5	-2.5
5.045154670843	-8.073481826115	0
3.067422670805	-7.261485866827	-2.119989769555
5	5	-2.5
6.670827432886	2.426402154651	0
0	5	-2.5
2.5	-2.5	0
0	-5	0
-2.06174787423	8.912216499171	-2.076458176898
-3.215520554776	11	-1.689667865568
-1.824902024377	11	-3.150289272683
-3.836816761646	11	-3.614146971252
11	3.645297524225	-3.9086550906
10	5	-2.5
8.857400916309	2.025743082884	-2.577151141411
9.224359971935	1.509639330139	0
11	3.223700057311	-1.758402794227
11	1.168924728731	-1.340539822899
11	2.5	0
11	3.75	0
9.252816092787	3.408134110708	0
3.75	11	0
5	10	0
3.580023334579	8.865035339898	0
-5.192459779503	2.380356925378	-4.448306288013
-5.375709899	2.58137177061	-9.139794904729
-3.180117208428	7.647000299019	-5.130398776234
0.195367191162	3.003700776566	-6.784332420172
-10	10	0
-10	10	-2.5
-9.17350825047	8.24691647455	0
-11	9.415661710766	-1.306022396122
-9.804087515704	11	-2.540338011008
-11	10.053818948484	-2.605145631405
-11	11	-2.5
11	1.596462377968	-3.313897908268
11	-0.42205666953	-4.548575156933
11	2.107925127162	-5.694793279626
5.195608695109	5.901670114641	-14.2043
-11	-9.856928559761	-2.604499489287
-9.981759101839	-11	-2.634423076023
-11	-11	-2.5
-11	-11	-3.9630375
-6.830933518139	-6.754306280461	-9.844573707464
-7.402898545215	-11	-9.915083277909
-11	-7.503660261283	-8.32423306598
-11	-7.727214750214	-11.447667213906
-11	11	-3.9630375
-3.521680698097	7.87761507569	-9.350580539679
10	-10	0
9.533411651734	-11	-1.116786764417
-11	-3.161512262017	-1.692693135011
-11	-2.5	0
-11	-1.41026118559	-1.389005571279
-11	6.51414603003	-6.608794195967
-8.079781982556	4.496796982665	-5.911701705462
-11	4.212594203093	-6.428751463506
-11	4.563072947317	-9.096493192419
0	-5	-2.5
-5	-5	0
-5	-5	-2.5
-2.440880110421	-8.505757280811	-2.199875110175
5	-11	0
5	-10	0
6.25	-11	0
4.965403438217	-11	-0.945607016317
-5	5	0
0	5	0
-4.199063678393	7.645780388229	0
-5.561440212393	3.770950076936	-14.2043
-5.365971599237	11	-11.817629255855
-11	2.113497921828	-7.031936496866
-9.696037350388	1.726165286055	-4.789040926745
-11	9.765787173007	-5.029810435647
-11	11	-5.426075
-9.710359344868	11	-5.022706116061
-8.344383380757	8.121248732261	-2.225859553268
-11	8.189402834507	-1.182182071491
-1.510656426281	-9.675296882625	-4.467340131673
-4.490587316639	-11	-4.043548102493
-2.090624418131	-11	-4.723122061696
-3.05007490687	-11	-2.891078197139
0.988915901624	-0.401466618618	-14.2043
-0.82814068751	6.235780627618	-14.2043
2.5	11	0
-2.956707428208	-1.478545055813	-4.809392828753
-11	5	0
-11	5.411776226705	-1.119695560088
10.001433074551	11	-2.650801744075
8.327882006409	11	-2.966846730407
9.632598129075	11	-4.176502818423
0	-11	-14.2043
-0.428903817072	-11	-9.35718865681
1.778916784274	-6.71141942223	-14.2043
-1.717158970851	-8.610142128508	-8.683576356256
6.986409950657	-9.158030842229	0
7.760388681671	-6.421406794769	0
-11	11	-1.25
9.024327747846	-2.64936234911	-2.888810606817
11	-2.797140391042	-4.017204451375
11	-1.233160583128	-2.853547564213
-10	5	-2.5
-9.682594184749	6.615058742277	0
-7.911632948864	5.232473785784	-2.549492949208
-5	5	-2.5
-5	10	-2.5
-8.613667033982	2.449038679589	-2.644399949175
-11	3.354170792335	-2.898019435113
9.815611359456	-11	-2.588153459961
-0.016802257773	-11	-0.952862191856
-1.421540591473	-9.731027764311	0
-1.25	-11	0
0	-10	0
11	8.094179597793	-1.671917541091
9.11721496716	6.9992241413	0
9.826573559214	8.45440283372	0
8.494940033555	8.337067490154	-1.865596625144
0.3314332294	-7.87495624483	-2.538811440469
1.423212720389	-9.253836053535	-5.173278576554
2.575675424487	-9.833268664735	-2.532569834587
7.712145096498	-0.843734481805	0
5	5	0
7.456401898297	-7.77027458807	-4.416216550647
7.819362958217	-4.714613726452	-5.613088135201
9.167311516026	-7.267591895112	-6.611404010072
-11	11	-8.35215
-11	11	-14.2043
-11	7.923126127364	-9.971337335921
-11	-4.892429560345	-2.556717429275
-10	-5	-2.5
-11	-5.139944125111	-4.234626010611
-11	-3.427001472548	-3.612904473086
-9.71894631552	1.336465978879	0
-8.415398943529	11	-3.259288026485
-6.869751424538	11	-3.008647079328
-11	-1.25	0
-10	0	0
-11	-3.750136807731	-9.573593886165
2.513769663555	-11	-5.008574896003
5.172615890062	-11	-5.945885437309
11	-5.111158125642	-2.34548900125
10	-5	-2.5
11	-5.405513575114	-1.100406418415
11	-3.925688653576	-1.200693900895
-11	8.402386010128	-2.779430588865
-11	1.786825363627	-1.62100477454
8.22639894513	-11	-3.397755047982
9.003668886274	-9.150761587873	-4.123429916277
2.5	-11	0
1.25	-11	0
2.105838944291	-8.520126080864	0
1.454577211373	-11	-1.375716584282
-7.873600528933	-3.702735814287	0
-2.981654873502	-3.664376330377	-8.988811998508
-2.5	11	0
-1.193303541258	11	-1.268316160856
-1.485941949916	8.847623000961	0
-2.5	-2.5	0
11	0.17537540225	-7.204377262234
11	9.79750100756	-2.564925793002
11	11	-2.5
11	11	-1.25
0.190795353659	-11	-6.396775396038
0.200178909028	-11	-4.021836418486
-11	7.5	0
-11	6.25	0
-11	6.78656808341	-1.667376450872
11	-4.669531826042	-9.056333973441
-4.731529405979	-8.555742486126	-5.616359966887
-6.468146223081	-11	-3.452236037536
-6.038456664673	-11	-4.981140940801
-5	-10	-2.5
-9.388274671054	9.40790996322	-4.692680636336
11	-7.5	0
11	-6.25	0
11	-6.705977010771	-1.656552756551
9.706968549966	-6.630372140216	0
-11	-7.5	0
-11	-6.25	0
-9.224939467167	-6.73554640456	0
-11	-6.132024429223	-1.268905143099
6.401985643569	-11	-1.358047288169
10	0	-2.5
11	0.069960272042	-2.670142961353
11	6.389096118413	-1.406811382112
-1.25	11	0
-5	-10	0
-2.924321518515	-8.52031813788	0
-5.25882659921	-7.98923563882	0
11	-2.270209457066	-6.717400117686
3.649267785122	-9.688608778627	0
0	11	-14.2043
3.272318149126	11	-3.180010719729
-2.405427984259	-11	-7.375834270167
-8.75	11	0
-9.534907098081	11	-1.114157579783
-8.429313872849	9.820334141943	0
-9.530563796767	6.875001896806	-4.93106961225
-11	6.453039752202	-3.874817552941
-9.879902587288	4.695122034377	-4.022755607991
11	-7.939261344074	-10.086337362643
11	-6.754721597518	-7.035954584988
11	-8.989910637097	-7.208301552213
0	11	0
0	10	0
0.393151005712	11	-1.143670672816
0.259582997361	9.242439935694	-3.694258363286
1.368683848361	7.842312241907	0
11	-4.562544742125	-5.904948733317
5	10	-2.5
5.011092358304	11	-2.410007551306
6.803726299237	11	-1.59567990723
6.478844059865	11	-3.396794241039
11	-8.409872904976	-5.201429642222
11	-4.779360220885	-3.835633530127
9.31581540367	-6.151361342438	-3.802968086739
8.262119507769	9.218730626904	0
-5	10	0
-4.617402887586	11	-1.131701353439
-6.214234539027	11	-1.254079199495
-10	11	0
9.612429889265	-11	-4.258862271921
11	-9.626665996311	-4.022071166777
1.220699174791	11	-8.065680653229
-0.058649594648	8.518189790613	-6.156280449557
4.98567685346	-11	-2.349858890743
3.596345435288	-11	-3.299745826092
5.156189874936	-11	-3.836398374364
-2.827157405684	11	-8.270857257804
-6.531553759463	-9.353051751782	0
0	10	-2.5
1.370843685119	11	-3.424861094038
-10	-10	-2.5
2.229833222496	11	-5.017866522219
-0.356902797281	11	-4.957706133615
-5	11	0
11	-11	-3.9630375
-11	5.5	-14.2043
-8.158670993193	11	-1.652285218895
-6.859585970652	9.092574753123	0
-11	-5.5	-14.2043
-6.249370276227	-2.182178128947	-14.2043
-11	2.5	0
-4.991402457457	11	-5.691849439348
0	-10	-2.5
-0.427009185463	-8.319987007082	0
-8.165378837044	-8.348997184491	-2.931726543623
-9.284925197363	-6.550954257661	-5.634376482206
-6.81874080749	-4.403860148035	-5.548659955279
-8.175887781393	-11	-4.902273818577
-8.238149491415	-8.883964929677	-7.082323330982
-11	3.061289959016	-4.722960385982
-2.988781061687	-6.180450155971	-14.2043
-3.419590360509	-11	-10.495759940342
4.262272895827	11	-10.087379739407
7.5	-11	0
-11	1.460184340246	-3.405749207813
-4.861300199347	-11	-8.128773288418
11	-3.759479822745	-2.688206375613
6.678353548244	-5.695694470177	-14.2043
-2.725601736431	11	-5.01758034325
11	-5.5	-14.2043
-11	-6.803980384254	-3.405376632242
-11	9.503577547189	-3.863653014223
-9.377054548459	11	-3.96457781054
0.055766060012	-11	-2.380105690451
-1.697499176172	-11	-1.578624930089
7.459335037605	-11	-9.241478486314
7.610587109325	-11	-6.132876920548
[...]
CELL_DATA 1559
SCALARS Resistivity(log10) double 1
LOOKUP_TABLE default
1.168448888689 0.94545930007102 0.40721584403479 1.1876713565619 -0.93558980977998 1.2180953597494 1.4492309041109 1.0421340866935 0.3907908555183 1.5632619137304 0.97592180913082 0.54543443488003 0.50833500441189 0.54058869262753 0.80622424822278 0.77434344243741 1.4732440424811 1.9570567799073 0.41934921777463 0.38629819714985 0.96078513726891 -0.16752868443201 0.48290676659648 0.31512136318152 1.1317464236135 -0.63806449185278 0.41909151084788 0.67657580221726 0.36620975625745 1.5717361420357 0.39256643005571 1.5371970179547 -0.35125634896243 0.95033635708191 0.45385651413821 1.3569827024718 1.1261076002418 1.2419309982491 1.5177879848039 1.239014344857 1.7846980067844 0.98423963932465 0.83855150979806 -0.090073092808193 0.42914494387321 1.6351143268081 1.2125833739664 0.754210554124 -0.016775736033641 0.54283637878266 1.682632102871 0.75274433534805 0.62077076182198 -1.3909263614601 1.0461932226065 0.42582891923821 -3.8218026630135 0.5595945822223 1.6805771031498 1.0863516061539 0.49497678169863 0.25596506463502 1.8925809913377 0.50018945555405 1.9181445669746 -0.90656377010996 1.1796024543271 0.35218059530281 1.2358066715877 1.5376754080004 0.095187681496331 1.8203962073179 -2.712824569165 1.020421214827 0.81816855514513 -0.74808225813587 0.88257954210568 1.0074073112021 0.94345134512603 0.52700380280892 0.76513390120242 1.2138320798729 1.2992106679245 0.54793015099279 0.57582572932217 1.4836023954458 0.79210443848703 1.1457597302854 0.72667115308838 1.379957239679 0.38102724206165 0.85147141992152 -0.56553183822898 0.78162569702861 0.38484030280507 1.5564130962411 -3.2800589352074 -0.81952290744861 -0.094426390601154 0.75031771138871 0.81971530923063 0.62334881125134 1.447800778237 1.466124505057 1.2568790082964 0.38795814725588 1.7134060487439 0.8807231977695 1.2972732606964 -0.083225985088733 0.3870257334281 1.2205884073909 1.2439834473891 0.64037182338784 1.4487406246888 -2.4282810713159 0.62294886129678 1.2823984636998 -0.10248879541206 1.2259758027706 1.1380851052494 0.36464964835326 1.0017298838539 0.69097468166646 0.72762456194787 0.44331600768945 -2.1395921729457 1.5358996881357 1.4012448311756 1.5589880702828 0.88556792967533 1.5942388912791 0.92875136154126 1.7989934093135 1.4011802977112 1.1052425003263 0.74639352354607 0.68758786527717 1.5184963740717 1.7632843722165 0.90314856868066 1.8968509851218 1.4454666817361 1.2158585037563 1.7681915012295 1.2329911107003 0.75923906973092 0.59078247967779 0.87793103585119 1.1384917204808 0.17401558102776 1.1642873724266 0.75037122692877 0.61105565739277 1.376234494293 1.0223992159633 1.0004388972079 0.87145737720569 0.92485071729992 -1.2282832422225 1.7768421562996 1.6307523329618 1.8173986036325 1.3211982381142 -1.2210427454529 1.4131819322259 -3.5033343996577 1.384046496766 1.0784891702315 1.2456193147699 1.3965382414641 0.91797728545837 0.75085873804846 -1.7568584454535 0.67820344084571 -0.47117360086004 0.75227546028035 1.2644382057483 1.207173547269 1.0245417204932 1.1022644340531 0.34602123136933 0.53945963189408 0.35918367314923 0.012361544590383 -1.592464930763 0.82852369072061 0.58906837989831 0.19551837238826 -0.49335007210203 1.7123700272028 1.1155440006902 0.82060696158873 1.7546451855217 0.57712669680428 0.4283011938913 1.3782970032158 0.95422821697431 1.115007866349 0.5260942080231 -1.015685765032 0.47568948930557 0.52458320581991 0.4732446424955 -1.1206065591636 1.4775353657442 0.22496442328586 1.1994219708084 0.95295077414304 0.47108667669492 0.92053814259797 0.38805019035366 -0.15897807428934 0.25841196702271 0.32415581133221 -0.83399412896349 1.3936696530773 -0.28007827756548 0.83613326146978 1.5874099282032 1.7761125815678 1.1120497739082 0.25202293984943 0.25935589760139 0.44793452700527 0.89506059688768 -0.77108451455998 -0.80793094030501 1.6908499004671 -1.5433298173604 1.3881860030408 0.46055537347782 -0.3248452084217 1.6442037147846 -0.41554915986559 1.7115986313773 -0.2373583827435 -0.506165964735 1.7635161186867 0.30310252235967 -0.069626007409941 1.1335888381693 1.0322904683666 0.90642942889905 1.5996069326555 0.58804283808102 1.3944373106812 0.365787693478 0.31678825874287 0.59128183723809 1.2264192297946 0.025546850527706 1.4990762764229 0.39174382739598 0.55667564483528 1.09588676747 1.7222325205933 0.50423788842169 0.94868917543344 1.2385185390441 -1.8891085268743 0.6602071865201 1.5064950480434 -3.0860778298421 0.78034930888811 0.56187943340469 0.42867410743716 1.4870935744359 0.27008036498797 0.93287238860408 -0.46469242950041 1.5014595199138 1.2034666576006 1.1918283777187 1.1901899078681 1.3833978242557 0.99368861735824 1.737265508403 0.47706867505234 0.68114376130774 0.28950428741047 0.970441183621 1.1791164523552 0.68036085192732 1.2503182093107 1.5660116520148 0.77846912144942 0.7590197822299 0.56415197905969 1.098852823924 1.3053665830858 0.28519959257695 0.80442648607579 0.29174139926674 1.3233632068045 0.53835956810113 1.3900805096245 -0.6194355186819 -0.03244073108317 -1.9369641491565 0.73465012672568 1.2077045758597 0.28463644400534 0.96309963484577 1.698857341827 -0.073721016402755 0.16375900093929 0.64330556304285 0.23995005455512 0.65951922306114 1.2865530042331 -0.31270604532735 -2.7955473359697 0.81791153315742 1.100552708306 1.62450183542 -0.29959339131362 1.2143594036297 1.2877160617342 1.2739437947997 1.4838136483522 0.25488093450519 1.491377950184 0.89689727059633 -0.13255914454988 0.13303121176413 1.0610653982285 -0.11951501156671 0.98782502280508 0.16366730899653 0.41495550277329 1.0890407911738 0.52564593632155 0.54217922331043 0.70245328324416 1.2548494640966 1.151684984266 -0.17008822694695 0.95488736500537 0.61898104820997 1.8416067281934 1.8455285717176 1.9340809541705 1.6439101538586 1.5670877680592 0.25744277549064 0.73087698925085 0.84079300402755 -0.80871678144381 1.219552753986 1.5465197334174 0.51936844527473 1.3730694771181 1.5322934657589 0.93354543741431 1.2380061405244 -1.0224962451882 0.89145807289598 1.3495822931998 1.1769755373139 -1.7442247369756 -4.0031902210281 1.2638721953194 -2.6353430274356 0.52656941495138 0.61204884897043 -4.2559569381972 0.94840316791789 1.2592223584685 0.79525036732002 -2.0576748558374 1.5093621772194 0.91696782867453 0.41366086091672 0.24711949032765 0.19260982188247 0.89978922228209 1.0417476117087 -2.3220334246321 0.3759217403685 -0.004257447235893 -0.93365828930359 0.43957498262932 1.1033213376044 -1.6417909360709 0.15213812189953 0.019572612505374 1.2268401301578 -1.3201296542746 0.80889636332912 -0.61355459216105 0.37658984642353 -2.9700391655269 1.7395356194729 1.3858272242002 0.56856038444542 1.0344937961465 1.09145669383 1.6978261717019 -0.49074601013584 1.0056544537683 -0.3256216081179 2.2799234629866 1.1010395655175 1.6818362278481 1.2799327072867 0.68105074442398 1.3822918288791 1.030644353263 1.6611312303294 1.2285725478803 0.073231094724275 1.3778546621402 -2.6352677385722 0.79255925288548 1.6258217853723 1.41889637598 1.2915162831334 1.3211441585905 0.73434570320981 -0.083818870834623 0.76380173569188 0.55433514202696 -0.35004227188589 1.1356262768873 1.4226284266127 -2.6011012279943 0.89081870074373 1.09390887524 0.75698993183062 1.1581150780379 -0.95920974934898 1.5623948025576 -0.48406906384147 0.73347342677286 0.3397354446565 1.1733982138825 1.3762861679287 1.30945881945 1.1783694152545 0.44881644290823 0.91674623334954 0.51998760231538 0.84385496686226 1.0494121844641 0.83686163343201 0.53096064486322 0.43303820388219 0.77405119496398 -1.3320041261531 0.70008010553361 1.0329641705663 0.52743704385924 1.6255809072743 0.79631567504638 2.0742709312444 1.2115511613825 0.76114207815708 0.85545658388814 0.22850102941102 1.8045753113577 1.059358410908 0.39982743995678 1.9832444786206 1.7882374247756 0.99859512747923 -0.36498904861542 1.0370393119141 0.97795591241309 1.4235004366054 1.5683207653517 1.1232852170919 1.4441694999243 -0.66122079264725 1.6684264321281 0.75585578290259 0.01777144396892 2.2168133951137 0.54754891458708 1.5337458363558 -2.8681341207171 0.51251150698796 1.0231921602034 -1.2194679461725 2.1183877458197 0.039552544448018 1.4606511367774 0.92863948674122 1.6170118063777 -0.7545396617626 0.97510508235377 -0.52460248051768 0.97767630884033 1.4010846749315 0.1610694724431 0.41539054529618 -1.4592275718496 1.6900465764731 1.4901052830927 -3.2300586659632 1.092278687282 -0.46848578715142 -3.9428672090305 1.3894409166929 -0.5016436537105 -0.94923965954497 -0.57253403049764 0.10976849659059 -0.63803960879081 0.35864180882307 -2.6258914521321 1.1735005051039 1.5680831754798 -0.69655041328603 1.0911636738175 -2.0036921874256 1.3393232354621 -0.89755385918488 1.3955850116418 -0.22717212977153 0.53673615982101 0.44599825910156 1.1149550022464 -0.14166105752536 0.9244111089435 0.73001019315316 1.3951406418457 1.0336273410992 0.73711581966996 0.90998751886437 0.61948940685161 1.7129662324147 -0.36192205771994 0.83201327853254 1.26478039568 0.65265849898666 -0.72944547606586 1.432386514283 0.58128060231951 -0.74000570797383 -0.33690040700148 1.1305681256055 1.6478794033738 0.88504063901133 0.62212100814136 1.0868219271761 1.4080730421762 1.4128077050492 -2.1451985983523 1.6779922318623 1.1906558395104 0.76053360817093 1.0842504243118 -0.32665539537422 -1.1086672338174 0.38082281977104 0.98061448945157 0.69335724003377 1.3165503187351 -0.81917149179598 1.0959075080108 1.4795199067139 1.56316597897 1.2397630190457 1.0104226970052 0.93226214421168 0.71486954479802 0.54550475546453 0.99259166165931 1.7411917486017 0.65615302688985 0.48338372311001 1.0453613833945 0.33235775852955 0.34368685672358 0.37770045295725 1.4036458471696 0.41380060680947 0.47022228600407 -2.6138466282141 0.70068314999502 0.70637742633121 0.4184255971452 -1.8004768556627 1.3566343026238 0.44000134452445 1.6343342427712 0.98696001507955 0.80379768956674 0.96018008429837 -2.5064017401497 -0.038139314635916 0.69168960946992 1.295329488987 0.87071395725121 1.4136416008922 1.5028255519965 0.46400176736024 1.5479859134905 -0.23969539158753 0.74875797800916 0.70934490674592 1.4708390027269 1.1177099936167 0.84450485269561 1.0719775236326 0.53064132123523 -0.90159996578737 1.4610521821069 0.74815927612242 1.3347325055599 0.19554531394052 -0.0014257687584232 1.2378309788811 0.0064356787821341 1.0926928499847 0.18381993029781 1.1257572751434 0.73250857903805 1.5151847851477 1.2140919048658 0.90647974964309 1.1659027186476 1.2586171292696 -2.6757113423537 -0.17021644931129 1.3945007789029 0.19833252465427 1.2283580430445 1.1837449196332 1.1397552525208 0.78856638625567 1.3933701418193 1.4425593863924 0.66471570379107 0.46872494059831 0.75206328324475 1.3227052599709 1.1088800937795 0.33933939528377 0.37986483182414 0.78189920673912 0.61955472274521 1.6979853597534 -0.091321969696398 0.4676361896463 0.013530657891946 0.38440995969346 1.1359708666685 0.6838506035778 1.3569664801698 0.1379690553181 0.74293886239151 1.7246658908608 1.1567931268505 1.4605043941543 -0.37900322890282 0.58190094938503 0.63557395040015 1.8562019628293 0.79084622674163 0.75382325583055 0.74108407214331 0.28316946176026 0.76806723057947 0.51015807686364 -1.52091757634 1.26786312978 0.40862511504044 0.96473948746554 -0.74547549415485 1.0694954238362 1.7145640273038 0.081130476843133 0.92291037293367 1.0033640182193 0.96051584343839 0.91956980742401 0.69231719134812 1.4636128041554 1.4338743407312 0.81543717541484 0.39249323825938 -0.064665594489785 0.19612698645714 0.66628345534336 -3.088278364701 1.4739871216209 1.20931248558 1.3769672365391 0.48273711387479 0.26718248456591 0.23434227063317 0.12518883562526 0.7062735904342 0.73106159164247 0.4652492848691 1.3412456836003 0.39074549744217 0.45688331271899 0.62080342681902 0.76788079609278 1.1914874143979 1.1716807656761 -3.6553322236117 0.75533602621356 1.0940157328007 0.47069378266813 0.9751141130971 -0.40060156490604 1.3456510823604 1.1260580308904 -3.172407548745 -1.281213573811 1.1900955909586 1.3962934503505 1.6629108891663 1.3806656759907 1.4700998829625 0.15353349003328 1.390611354683 0.39612471299271 1.7635930749125 1.3682996985072 0.52365090963561 -0.21104306852976 1.2444547407479 0.91146865862975 1.3377181799618 0.85925459423886 0.34924722785809 1.3521955402353 0.58665895315957 0.93333520894941 0.51236637264933 0.80627853230736 1.1467499963098 0.31927021462285 1.0263338787875 1.0238962183529 -0.073227986782942 1.1650538183435 1.3030331810724 1.1083914149742 1.0442211543337 -0.20246885476758 -1.7593395110366 -1.1518696121803 0.80935137444662 0.66781094433722 0.31038453710758 0.44274203386277 -1.176060114822 1.4024298144275 -0.83995880513712 0.17822780781437 1.8028126302895 -2.6697884531852 -1.2992945316626 0.8812234771059 0.57481362102814 1.0381003559491 -1.1472244038071 0.84413845454815 0.99096828620562 1.1246878931254 1.3391161653195 0.79485454520423 1.3084951147015 0.71871050429334 0.51239582081051 0.88802794004256 -2.307740055253 1.5099879291135 0.81667495967215 -2.7948391408653 -0.48071630732335 0.11672466654814 0.056769959656988 0.32314011339731 1.5252477088313 0.51685265285889 1.6698188280704 -0.12377335774901 -0.19864484648498 0.67782708000352 1.1216771304283 1.2324962077222 -1.5571086102775 0.52078033815999 1.0079989579995 1.3566298718467 1.920158536638 1.975328900071 1.9271692831757 -0.052683463085542 1.5630308536845 1.7417675464655 -0.14185873208957 0.31234309286666 0.011246704679439 1.353350073799 -1.0496625031447 -0.76919475823287 0.96376921763263 1.4928028527506 1.5193419298779 1.1821847686298 1.8110259977137 1.7409332656017 1.3257366977795 1.4133143977414 0.37126416186844 0.6199502862518 -1.3163106399797 1.6090032190572 1.340691836104 0.82258803321077 0.42844030432317 -0.12332421880944 1.2093439361173 1.2591048307506 1.2901963208561 1.310111434338 -0.30750186502142 1.0259913034622 -1.0793234105355 1.0370722371368 0.07121280603781 0.21890830522636 0.21820656079458 0.97188823816131 0.23857232007706 0.2879622791793 -0.58418226654525 1.3945810903367 0.79208744698483 -3.6034298890358 0.5061814031905 0.81228223155546 0.92012991696011 0.47105556620659 -2.0652092765681 0.56042689991989 1.4230118710714 2.0885457510734 0.99058517028668 -0.033183267077495 1.2662268255716 -0.0092493084109113 1.1768387417859 1.2128087861989 1.5693795556293 0.99332400657892 0.68766339004625 0.3606163494701 1.6434395204042 1.1237028810414 -0.056868518064085 1.1023745905748 0.00025415950324834 0.35388312396558 -0.68567011085539 0.81314115314013 -0.21514349113734 1.4509799294511 1.3871693874017 0.34126316020981 0.72800952785167 0.49676957027335 0.24028534053531 0.34502663398809 1.1883411871812 1.3816033776372 1.7542256533449 1.0918947971225 1.4704216693995 0.88467022602864 -0.72926287273983 0.6676971371221 1.2954329586236 1.22675492668 0.95509949263555 0.91040172671535 0.50130651313543 0.6417715532059 0.62531747182006 0.82930848683785 -0.064531620474921 1.7981952304995 1.7080168568496 0.58936460908659 1.6106795877382 1.6181127390125 1.6013047767907 1.6387105735044 1.5216375022693 1.5064942109651 1.1012783366455 1.0896780985827 -1.776862462079 2.0615160797802 2.1426648925631 2.1361246566065 -0.62765209207629 1.3561508985808 0.87609154801483 1.1067064104358 0.64462746668148 0.81444662534473 0.45694509269612 1.0032669795932 -2.689936893365 -4.0752561026674 0.91823148542367 0.22482833698845 1.407592101359 0.89420624322056 1.7392105121791 1.6409424678624 -2.3910416865869 -0.36242268479909 -2.5586326247699 -2.5003599488406 0.22214054179886 0.92575306692009 0.29318987008785 1.2772452333887 1.3592415447729 1.1080680599118 1.0067852052517 1.3661992128251 1.302758989541 1.1551238345837 0.64404955724308 1.0747191715666 0.58506795396171 0.36051345388346 1.7440787589246 0.016345677792741 0.49888376861862 0.39572778237732 1.0166823993721 -0.17062132322249 0.66716452450938 0.0038183133879854 -0.2022411116854 0.041933007232045 -0.62257117230331 -1.081897509336 0.19299331607683 1.6966375114274 -0.44174605334913 0.54386759868524 0.89747595190765 -0.50753833439646 0.69177674887556 0.79341611345303 0.9239042163476 0.71694682668361 -0.85181529385493 0.21048951677882 1.083643662189 0.29970544765317 1.6703883952236 1.4423071307285 0.4150192686966 0.92657700395127 0.41831843459941 0.9485417183073 1.0922817379032 0.72001121915236 0.54756487210462 0.82161007778784 1.3229557728998 0.35816581974726 0.54296830054861 -1.5046613586065 -2.5417450913825 0.10976288785598 1.3748314956836 1.580570859058 1.4110887815379 1.7262403701644 1.2008238258103 -0.057836455037183 0.30810915226996 1.3354331834288 0.7001719645528 1.0649981581715 0.66780869799096 0.73874957565778 0.59839350976417 1.0356501313215 0.54662590242161 1.0573901213034 0.63201914744168 -0.29334271640377 0.88928939643317 -0.86249095949168 0.54695077654288 1.4222939843088 1.8244206385301 1.7113060259161 1.3745447242112 1.0224650330617 1.0290059027071 0.96359689976641 0.24064897051493 0.34375033719442 0.6499960281276 0.63715347197475 -0.6414385672684 0.47238689253372 0.095627501666663 0.49049401338721 -0.98552072101632 -0.66979789173471 -0.46478849942534 0.6036341946742 0.85952792403033 0.75065957034927 0.90806823318475 1.1019652932642 1.0818507138412 1.1826596595074 -0.12712001429029 1.4452664798127 0.30661157854831 0.53914566990907 -0.2459036829132 0.83832103141374 1.8334072285741 -0.53807981956751 0.56847345000592 -1.363488588648 1.6264319051247 0.86857030570891 1.2062522998323 0.14102679637934 0.83645480959485 -0.30384479221163 1.7242682250049 1.0752528751151 0.56621143867899 0.16604269063705 0.77867654398135 1.7845171336287 1.715442994708 1.7347430207078 1.7630405463319 1.545873956037 1.3292684549045 1.4861467143368 1.2478373473958 0.1747589849674 1.860649161192 1.6780697594599 1.2738888862465 0.80534955309956 0.64506986585784 1.0158835952573 1.2607346556747 1.0058582167742 1.0606370620104 -0.43543449222132 0.59096338580821 0.70447028685834 1.2781033189667 1.1088636419139 0.42384258492858 -0.2875559045295 0.52014158362166 1.8102059961225 1.0966262231324 1.5655927554773 1.0665998486682 1.726697600886 -0.024825253224733 0.32576153112837 1.2136406193512 -2.9157233009035 0.86099612650166 1.3774117098329 -2.84742002948 -0.81638703671728 -2.9244654646095 -2.8257048203001 0.37654896121507 0.20681615300989 1.1202601596776 0.53767660647854 0.71085434795028 0.75468174797157 0.74319049889502 0.69411802209459 1.3523411670574 0.6577926444058 1.6582370886187 0.44758386993886 0.87110118363461 1.4879918039877 0.59775750378749 1.2585486519664 0.69796005715505 0.98737754533264 1.0602458217027 0.28851673484844 0.21185410316893 0.81111623753163 1.3757520899651 1.1917012444574 1.2736512741645 1.4391974486138 0.64427843545194 1.8250773618819 1.0610441046246 0.89898689719024 -0.48521353948802 0.6613582286414 2.0756753618846 2.0493900895027 2.0571999797918 1.1831149708059 1.3015947856992 1.8967097126227 0.30347356175179 0.50578125536175 1.3380860464845 1.0858902347654 0.33025308119192 -0.84099554275429 -1.2227684122713 0.018311201858602 1.1799171780765 1.4132930881733 -0.55418297048825 -2.008802349684 -0.71808280788462 -2.2084779015362 -0.71240159783327 -0.86593454228277 0.22811093118942 -1.1671085464407 -0.30395641634954 -1.7365596653738 0.93224490849203 -0.91774058450083 0.68585599543812 0.26399297671849 0.067903592023983 0.71500006083433 0.87007825855049 1.1061925308223 0.77477588302637 -3.0192895633521 -0.71914101040881 -1.0958059561175 -0.24368262974086 1.2177604293161 0.46203618007445 1.2872966432078 0.62409615245631 0.92379169022129 1.7689203231937 0.34938497087812 -0.45189777477721 -0.82163455228651 0.94500947865862 -0.70224179387909 -1.0008533821006 -0.41125257639125 0.57520088048427 1.1362946798926 0.3133262525648 0.34112932399548 -0.15654261255448 1.1167439994641 0.94223734904304 1.3181936648893 0.80526479007673 0.16822720044295 0.26104456102643 -0.13451150427148 0.96278955658755 0.48624506716157 0.81475289197134 0.049206084147914 -3.0677687781013 0.85466978430977 -1.9829806399543 -1.1630484138212 1.73758699162 -2.3819478414103 1.3731041802846 1.4109237158076 1.7331938839593 0.732