# vtk DataFile Version 3.0
d-3__ libgimli-v1.1.0: I=5 lam=20 wz=1 rrms=107.965% chi^2=19551.6
ASCII
DATASET UNSTRUCTURED_GRID
POINTS 488 double
2.056098588435	-5.046854818664	-6.535842662675
2.952496453214	-11	-9.071616679161
6.618679758214	-6.085967230734	-10.139427474564
5.921466559117	-8.56281341256	-6.579852406563
-6.589772086175	8.817693974959	-5.032836255414
-7.456424766767	11	-8.531530613648
-8.269125497403	7.677180691964	-8.800106381944
-9.373513980084	11	-6.50998018986
11	-9.623359386581	-1.065371683303
9.204392252705	-8.264335040134	0
11	-8.75	0
11	-8.417487255696	-1.441524244981
10	10	0
10	10	-2.5
8.954208646248	11	-1.212187388043
11	9.523198680788	-1.115828158078
10	0	0
11	0	0
11	-1.25	0
11	-0.575379592621	-1.429520530143
11	0	-14.2043
11	2.750048726052	-9.500318484382
7.464567985486	0.051704139931	-7.835158067459
11	-1.47686794996	-10.09281414796
0	0	0
5	0	0
5	0	-2.5
3.251159637515	2.49970172174	0
-11	3.75	0
-10	5	0
-8.469270829822	2.9742777851	0
-11	3.835195987438	-1.225500135778
-10	0	-2.5
-9.538421716503	-1.859455360525	0
-8.753043453279	-2.333754178184	-2.281265590866
-8.338803398701	-0.195492269697	0
3.926950273557	8.429587983656	-5.434710690593
7.573013910667	4.192445991868	-5.478220440327
2.719327598846	6.976577021744	-9.799821050214
8.085323449398	7.437044290467	-8.350717684539
2.571059227139	9.147381449944	-2.616019466683
1.66892008996	9.671300202883	0
3.551520487731	11	-1.423834688183
1.777176051215	11	-1.701045424272
11	-9.822733550051	-2.499135432869
10	-10	-2.5
11	-11	-2.5
11	-11	-1.25
6.964944485764	-9.018768084093	-2.060588117181
9.158437334364	-7.427672813074	-1.837158939527
8.44985025903	-9.830260403807	0
-7.737478180165	-0.951312666993	-6.928375267817
-11	-3.6637968465	-5.776117842308
-9.161828177958	-0.92653104664	-4.344833718125
-11	-0.864283582608	-7.018625919073
6.573305384191	-11	-2.847240682639
4.812362618405	-8.949821680236	-4.451818358765
5	-10	-2.5
-5	0	-2.5
-5	0	0
0	0	-2.5
-2.5	2.5	0
5	-5	0
5	-5	-2.5
5.045154670843	-8.073481826115	0
3.067422670805	-7.261485866827	-2.119989769555
5	5	-2.5
6.670827432886	2.426402154651	0
0	5	-2.5
2.5	-2.5	0
0	-5	0
-2.06174787423	8.912216499171	-2.076458176898
-3.215520554776	11	-1.689667865568
-1.824902024377	11	-3.150289272683
-3.836816761646	11	-3.614146971252
11	3.645297524225	-3.9086550906
10	5	-2.5
8.857400916309	2.025743082884	-2.577151141411
9.224359971935	1.509639330139	0
11	3.223700057311	-1.758402794227
11	1.168924728731	-1.340539822899
11	2.5	0
11	3.75	0
9.252816092787	3.408134110708	0
3.75	11	0
5	10	0
3.580023334579	8.865035339898	0
-5.192459779503	2.380356925378	-4.448306288013
-5.375709899	2.58137177061	-9.139794904729
-3.180117208428	7.647000299019	-5.130398776234
0.195367191162	3.003700776566	-6.784332420172
-10	10	0
-10	10	-2.5
-9.17350825047	8.24691647455	0
-11	9.415661710766	-1.306022396122
-9.804087515704	11	-2.540338011008
-11	10.053818948484	-2.605145631405
-11	11	-2.5
11	1.596462377968	-3.313897908268
11	-0.42205666953	-4.548575156933
11	2.107925127162	-5.694793279626
5.195608695109	5.901670114641	-14.2043
-11	-9.856928559761	-2.604499489287
-9.981759101839	-11	-2.634423076023
-11	-11	-2.5
-11	-11	-3.9630375
-6.830933518139	-6.754306280461	-9.844573707464
-7.402898545215	-11	-9.915083277909
-11	-7.503660261283	-8.32423306598
-11	-7.727214750214	-11.447667213906
-11	11	-3.9630375
-3.521680698097	7.87761507569	-9.350580539679
10	-10	0
9.533411651734	-11	-1.116786764417
-11	-3.161512262017	-1.692693135011
-11	-2.5	0
-11	-1.41026118559	-1.389005571279
-11	6.51414603003	-6.608794195967
-8.079781982556	4.496796982665	-5.911701705462
-11	4.212594203093	-6.428751463506
-11	4.563072947317	-9.096493192419
0	-5	-2.5
-5	-5	0
-5	-5	-2.5
-2.440880110421	-8.505757280811	-2.199875110175
5	-11	0
5	-10	0
6.25	-11	0
4.965403438217	-11	-0.945607016317
-5	5	0
0	5	0
-4.199063678393	7.645780388229	0
-5.561440212393	3.770950076936	-14.2043
-5.365971599237	11	-11.817629255855
-11	2.113497921828	-7.031936496866
-9.696037350388	1.726165286055	-4.789040926745
-11	9.765787173007	-5.029810435647
-11	11	-5.426075
-9.710359344868	11	-5.022706116061
-8.344383380757	8.121248732261	-2.225859553268
-11	8.189402834507	-1.182182071491
-1.510656426281	-9.675296882625	-4.467340131673
-4.490587316639	-11	-4.043548102493
-2.090624418131	-11	-4.723122061696
-3.05007490687	-11	-2.891078197139
0.988915901624	-0.401466618618	-14.2043
-0.82814068751	6.235780627618	-14.2043
2.5	11	0
-2.956707428208	-1.478545055813	-4.809392828753
-11	5	0
-11	5.411776226705	-1.119695560088
10.001433074551	11	-2.650801744075
8.327882006409	11	-2.966846730407
9.632598129075	11	-4.176502818423
0	-11	-14.2043
-0.428903817072	-11	-9.35718865681
1.778916784274	-6.71141942223	-14.2043
-1.717158970851	-8.610142128508	-8.683576356256
6.986409950657	-9.158030842229	0
7.760388681671	-6.421406794769	0
-11	11	-1.25
9.024327747846	-2.64936234911	-2.888810606817
11	-2.797140391042	-4.017204451375
11	-1.233160583128	-2.853547564213
-10	5	-2.5
-9.682594184749	6.615058742277	0
-7.911632948864	5.232473785784	-2.549492949208
-5	5	-2.5
-5	10	-2.5
-8.613667033982	2.449038679589	-2.644399949175
-11	3.354170792335	-2.898019435113
9.815611359456	-11	-2.588153459961
-0.016802257773	-11	-0.952862191856
-1.421540591473	-9.731027764311	0
-1.25	-11	0
0	-10	0
11	8.094179597793	-1.671917541091
9.11721496716	6.9992241413	0
9.826573559214	8.45440283372	0
8.494940033555	8.337067490154	-1.865596625144
0.3314332294	-7.87495624483	-2.538811440469
1.423212720389	-9.253836053535	-5.173278576554
2.575675424487	-9.833268664735	-2.532569834587
7.712145096498	-0.843734481805	0
5	5	0
7.456401898297	-7.77027458807	-4.416216550647
7.819362958217	-4.714613726452	-5.613088135201
9.167311516026	-7.267591895112	-6.611404010072
-11	11	-8.35215
-11	11	-14.2043
-11	7.923126127364	-9.971337335921
-11	-4.892429560345	-2.556717429275
-10	-5	-2.5
-11	-5.139944125111	-4.234626010611
-11	-3.427001472548	-3.612904473086
-9.71894631552	1.336465978879	0
-8.415398943529	11	-3.259288026485
-6.869751424538	11	-3.008647079328
-11	-1.25	0
-10	0	0
-11	-3.750136807731	-9.573593886165
2.513769663555	-11	-5.008574896003
5.172615890062	-11	-5.945885437309
11	-5.111158125642	-2.34548900125
10	-5	-2.5
11	-5.405513575114	-1.100406418415
11	-3.925688653576	-1.200693900895
-11	8.402386010128	-2.779430588865
-11	1.786825363627	-1.62100477454
8.22639894513	-11	-3.397755047982
9.003668886274	-9.150761587873	-4.123429916277
2.5	-11	0
1.25	-11	0
2.105838944291	-8.520126080864	0
1.454577211373	-11	-1.375716584282
-7.873600528933	-3.702735814287	0
-2.981654873502	-3.664376330377	-8.988811998508
-2.5	11	0
-1.193303541258	11	-1.268316160856
-1.485941949916	8.847623000961	0
-2.5	-2.5	0
11	0.17537540225	-7.204377262234
11	9.79750100756	-2.564925793002
11	11	-2.5
11	11	-1.25
0.190795353659	-11	-6.396775396038
0.200178909028	-11	-4.021836418486
-11	7.5	0
-11	6.25	0
-11	6.78656808341	-1.667376450872
11	-4.669531826042	-9.056333973441
-4.731529405979	-8.555742486126	-5.616359966887
-6.468146223081	-11	-3.452236037536
-6.038456664673	-11	-4.981140940801
-5	-10	-2.5
-9.388274671054	9.40790996322	-4.692680636336
11	-7.5	0
11	-6.25	0
11	-6.705977010771	-1.656552756551
9.706968549966	-6.630372140216	0
-11	-7.5	0
-11	-6.25	0
-9.224939467167	-6.73554640456	0
-11	-6.132024429223	-1.268905143099
6.401985643569	-11	-1.358047288169
10	0	-2.5
11	0.069960272042	-2.670142961353
11	6.389096118413	-1.406811382112
-1.25	11	0
-5	-10	0
-2.924321518515	-8.52031813788	0
-5.25882659921	-7.98923563882	0
11	-2.270209457066	-6.717400117686
3.649267785122	-9.688608778627	0
0	11	-14.2043
3.272318149126	11	-3.180010719729
-2.405427984259	-11	-7.375834270167
-8.75	11	0
-9.534907098081	11	-1.114157579783
-8.429313872849	9.820334141943	0
-9.530563796767	6.875001896806	-4.93106961225
-11	6.453039752202	-3.874817552941
-9.879902587288	4.695122034377	-4.022755607991
11	-7.939261344074	-10.086337362643
11	-6.754721597518	-7.035954584988
11	-8.989910637097	-7.208301552213
0	11	0
0	10	0
0.393151005712	11	-1.143670672816
0.259582997361	9.242439935694	-3.694258363286
1.368683848361	7.842312241907	0
11	-4.562544742125	-5.904948733317
5	10	-2.5
5.011092358304	11	-2.410007551306
6.803726299237	11	-1.59567990723
6.478844059865	11	-3.396794241039
11	-8.409872904976	-5.201429642222
11	-4.779360220885	-3.835633530127
9.31581540367	-6.151361342438	-3.802968086739
8.262119507769	9.218730626904	0
-5	10	0
-4.617402887586	11	-1.131701353439
-6.214234539027	11	-1.254079199495
-10	11	0
9.612429889265	-11	-4.258862271921
11	-9.626665996311	-4.022071166777
1.220699174791	11	-8.065680653229
-0.058649594648	8.518189790613	-6.156280449557
4.98567685346	-11	-2.349858890743
3.596345435288	-11	-3.299745826092
5.156189874936	-11	-3.836398374364
-2.827157405684	11	-8.270857257804
-6.531553759463	-9.353051751782	0
0	10	-2.5
1.370843685119	11	-3.424861094038
-10	-10	-2.5
2.229833222496	11	-5.017866522219
-0.356902797281	11	-4.957706133615
-5	11	0
11	-11	-3.9630375
-11	5.5	-14.2043
-8.158670993193	11	-1.652285218895
-6.859585970652	9.092574753123	0
-11	-5.5	-14.2043
-6.249370276227	-2.182178128947	-14.2043
-11	2.5	0
-4.991402457457	11	-5.691849439348
0	-10	-2.5
-0.427009185463	-8.319987007082	0
-8.165378837044	-8.348997184491	-2.931726543623
-9.284925197363	-6.550954257661	-5.634376482206
-6.81874080749	-4.403860148035	-5.548659955279
-8.175887781393	-11	-4.902273818577
-8.238149491415	-8.883964929677	-7.082323330982
-11	3.061289959016	-4.722960385982
-2.988781061687	-6.180450155971	-14.2043
-3.419590360509	-11	-10.495759940342
4.262272895827	11	-10.087379739407
7.5	-11	0
-11	1.460184340246	-3.405749207813
-4.861300199347	-11	-8.128773288418
11	-3.759479822745	-2.688206375613
6.678353548244	-5.695694470177	-14.2043
-2.725601736431	11	-5.01758034325
11	-5.5	-14.2043
-11	-6.803980384254	-3.405376632242
-11	9.503577547189	-3.863653014223
-9.377054548459	11	-3.96457781054
0.055766060012	-11	-2.380105690451
-1.697499176172	-11	-1.578624930089
7.459335037605	-11	-9.241478486314
7.610587109325	-11	-6.132876920548
[...]
CELL_DATA 1559
SCALARS Resistivity(log10) double 1
LOOKUP_TABLE default
0.8750743276118 1.4984507409697 1.8448536178822 1.8030265034901 2.6232813045033 1.2427953938757 2.2965339385193 2.0833766827527 1.9675965156247 1.4838532929794 1.5511957505346 1.739440179627 2.4173661446944 1.8766965758507 2.2742396146066 2.0651104907102 2.4063329129073 1.9418971836507 1.6774431027656 1.5952480672547 2.2948530510174 1.9278604678353 2.1907744096431 2.5616746358929 1.5890271332721 0.87880461711116 1.913438221201 1.6824784156872 1.9291231465695 1.2020100038915 1.7383895663548 1.6458613828482 1.6903440956752 1.4319113300954 2.0004094720497 2.2306410318677 1.5778844993195 2.2990891215631 2.4334571391092 2.4992835773372 1.2617866159646 1.5292175389826 1.6068579533381 2.125837268092 1.8560169849661 0.9260090312253 1.5334437384078 1.3340195857003 1.9280450950088 1.7230152871395 1.3184240038681 2.2065319842527 1.7045302852862 2.019300006294 2.8715274009102 2.2290504803449 2.4827153471192 1.7291847619077 2.1643850259557 1.2155871548655 1.5983061797049 2.0583768511512 1.6601226654721 1.6141824223371 1.4029742727714 2.3851682085442 2.0512119125133 2.0437587494562 2.0067269173016 1.6639611066714 1.6269472748357 1.8400725912354 2.4816100619371 1.2796273745006 1.5115765021142 2.1766612126097 2.4289953561367 2.0355136391412 2.6401543223039 1.8104150135705 0.92138284015556 2.5351494384583 2.211236686253 2.0504360829336 1.7118936942951 1.3690378984335 1.8077388676442 1.8201961343573 1.7958341104833 1.2196360001062 1.7405701308492 1.6219161315211 1.9041143677486 1.4797782827403 2.1624805686379 2.5538599055408 2.1735699302848 2.0219079515276 2.182973711355 2.2633581067341 1.7911675060203 2.8493378658287 0.48324104664185 1.4280809175802 2.1151419586272 2.3318096497592 1.3112599616596 2.1028555587753 1.5663467665681 2.0460747293595 1.5652147623674 1.7324460348245 1.4057512978527 1.6941553419492 1.486612835738 2.3403905580162 1.6765193139924 1.5142507325187 2.4310737467611 2.449409057268 1.8816930087899 1.8247194897861 2.2831149129478 1.6060419049471 2.4045743491653 1.606427841608 2.2396929160158 0.79107010574318 2.9535684728545 1.3180476205557 1.7967413395192 1.5084686299961 2.0814308521265 1.3782895215138 0.94624899678102 1.6465850950977 1.7388853654243 1.7451886115682 1.6620847828029 2.9413362895038 1.7027846021709 1.3268039117852 2.6021436878257 2.4078200750355 1.4980130668029 2.3403735991549 1.809610299837 2.5836482749595 1.7440679205553 3.1859097111631 2.0329716998489 1.8268307674779 2.203058869778 1.6817351562929 1.7355940226163 2.267288889758 2.3718306213904 2.0567280927985 1.7940212222129 2.1371261229673 1.4440452126269 1.2942699553413 1.4429686659073 2.378654150108 2.0870863919938 1.5806115252121 2.3549917909256 0.92289423252053 1.6823623959622 1.6529290692424 1.3289037412285 1.556524146533 1.5508063830719 2.4401345574735 1.6693053427231 1.7128604001231 2.1852779840383 0.58110447110733 1.5879842928893 1.4115526321013 2.4085062024375 1.6013764231884 2.0397926983471 1.6865656083321 2.3900772894919 2.6857760038935 1.7924057957497 1.7111867060011 1.6263907066408 2.2579858756504 1.4654790112569 1.7157316402595 1.6460661535037 1.6334981243307 1.9149224339614 2.2361299850832 2.1078651749326 1.9445259936488 1.6245211094089 1.8060914509169 2.0066832107349 2.2858813078267 1.7505926683416 1.712322404379 1.9829326792649 2.387845299056 1.8155490186425 1.426482407488 1.9634793924901 1.8987350321375 2.1842415815575 1.908636014806 1.5355556442043 1.6463499368776 1.6072521593262 1.9756775901071 2.3887677527886 2.6211535766541 1.9897614478665 0.80076005928145 1.4678587945647 2.2506561509172 2.5469180672992 2.0983178574971 1.7565982090052 1.7160321667885 2.3439536865245 1.0737525404951 1.5694335043977 2.1101608964969 1.6740597316621 1.5794964053391 1.4611139532143 2.1688930112929 2.6203089025119 1.1246874425039 2.8904983792807 2.5728507062544 1.5805608712529 1.0312000038091 2.6811768659243 1.3457984034255 1.9394711547559 2.0224510646498 1.5799236669058 1.742165075304 1.3413479442807 1.9847439254296 1.9420162296828 2.0729290793631 2.2403750751911 2.1664863804856 2.5537116501926 1.7919221515398 1.8669098513636 2.1868643797323 1.6351893362539 1.3485714998968 1.8059496140345 1.7392463022383 2.0799280461534 1.567585889515 1.2420255448779 2.4634745169387 1.4060578231536 1.784521273522 1.6821488004741 1.1046242511116 1.946591449344 2.3817683808026 1.9358969533087 1.4403409104141 1.8016362332495 1.4373774461013 1.8792139749817 1.4756016128849 1.9647577798774 1.3626071871899 1.7511692538427 2.1482548756338 1.5479243629246 1.981974639264 1.1489948202985 1.7741457768097 1.4779642241971 0.91055215153336 2.8706725855957 1.3219323504234 1.7730725038477 2.0015163400663 1.2430967517568 1.6588812842455 1.5605021931874 1.4619088200373 1.4225449596676 2.2640426190034 1.7577757127253 2.1174094912837 1.9366235002835 2.5435074027007 2.425156779003 1.5631978416032 1.3466978298635 2.4877311555355 1.579142410234 2.0216955489621 1.9964741696489 1.7810663632465 1.9069381124441 1.5781216178122 2.0940929962769 2.6550845454226 2.3167464587574 2.8200433466979 1.5834145393002 1.4274326441779 1.6743057488181 1.7550264361776 2.438409264643 1.2137950386276 1.5815463031904 1.9757745762815 2.3122280211352 1.6735685277264 1.8433808499336 1.6982594199743 1.879521317988 1.9473223077361 1.7143865192815 2.166908721002 1.6336297609034 1.1389267998434 1.7342734761404 2.9135120907497 2.267006426381 1.8702668192615 1.9991688560564 1.7593117656576 1.4829011949664 1.3453161150271 1.0933934451535 1.0910444501967 1.3208107536195 1.2343424632651 1.4492415219262 1.4886630912199 2.1271789647562 2.0536820763537 2.0422245766106 3.0578047566865 1.4462725328771 1.8412074490809 1.6855703808547 1.1767968090669 1.7260971334761 1.8955198616379 2.0838661973689 2.3526541360022 1.3957373177882 2.1630001436946 2.2119078034053 2.4906962492745 1.4942696649779 2.2455915855999 1.889507137194 1.9674055842157 2.3225644160966 1.8410395003492 1.4129012268693 2.0168380513514 2.6161056843991 1.5101337454126 2.5944609320282 1.8493735813222 2.1999113330144 2.2076396836387 1.8833075127446 1.4926854817724 2.0301922693498 2.4675689192435 1.8235583584734 2.1313213720857 1.753837385948 1.5318275303133 3.4131504449792 2.7976374131147 2.1956585929647 2.4836521665676 3.5347901854265 1.9299443389484 1.1067091946523 1.8145158731625 2.2896206988846 1.6137007958078 2.2481627406794 2.2208611309778 2.1676471162155 2.308180265769 1.5496432909004 2.1480015536495 2.0184891463806 2.1364010377132 1.8670642009671 2.0891578612242 1.1832852691084 1.0710170360072 2.0980810604921 1.6485306203219 2.1423223221829 1.5791997027599 2.4140101345773 1.667551922995 1.3152581919166 2.3677236687003 1.9015210798633 1.5163780955507 1.796747452773 2.7095756991831 1.6742523832444 2.3006480765402 2.433414835479 2.0231388835955 2.8566960310903 1.7384949174328 1.404513596267 2.6046258425043 2.3870464320782 1.9187843444493 2.0616932632587 2.263242752278 1.8467376569344 2.3390761128299 0.70882951986875 1.9285003367216 1.6572908188428 1.6415350524788 1.1344672807329 1.6785151623861 1.6615989445093 1.8879094969048 1.8878322153639 1.5782213902989 2.070891782585 1.6174435846766 2.4265806422817 1.7604231360829 1.5977132256024 2.0339141077863 1.8496892388499 1.7996394978128 2.2679188860601 2.3961947333065 2.2920020768169 1.3696375718673 1.8252133228763 2.7665550891748 1.2248396596679 1.7503479131126 1.5760818281327 2.6986976848488 1.3546587126877 1.2539563312221 1.7796713878565 2.861312448205 1.4257445986503 2.7313810421614 1.9845274990275 1.4589115053342 2.8150020389242 1.3081524168213 2.8275735112964 2.886693705009 1.7268813709547 2.0468714039297 0.99131309238105 2.6963251111949 2.1635426168325 2.2239342505493 1.8639589356762 1.6856831078482 2.2145146273852 1.6004403922841 1.944715909812 1.8943771219294 1.3566527807883 1.9153544467928 0.72947224796577 0.94536902240133 1.5746477477992 2.5426070281725 1.7400448169851 2.2785474449623 1.9391220360717 1.5115977789639 2.0071137881366 1.8741634017519 2.1220749427102 0.97350823828879 1.6705754389788 2.458164881149 1.2741773148705 2.2786843933801 2.3070371186873 1.6243011032409 1.7903166088455 2.512513885476 1.8076194661138 1.9575603261362 1.7363476172754 1.4312442784725 2.2299714335399 1.2834945605652 1.0962274314428 2.054532781907 1.8987818072223 2.4395471572402 1.6721580111544 2.3036619844152 3.0226705022236 2.496295314622 1.5452736883362 1.9986006715384 2.2877006202265 1.7962652016406 2.9564064599425 2.6219402678594 1.3420967877886 1.9322561461189 2.746892791247 1.7824015505434 2.7696301789277 1.588018463025 2.1637520420412 1.5839201262296 1.9166828317569 2.2349027247069 2.0146480501801 1.6206310844818 2.7721630308276 2.0703762660522 1.9584685799206 1.8242657499267 1.4341897338179 1.6170209075387 2.060018869686 2.3923398253095 2.1664151131587 1.5981297257972 2.303577270195 2.7045351930991 1.3457910615815 2.3372143631254 1.4753649968815 2.0269289212675 1.935741178881 1.8880183833087 1.7074349514194 3.0403303036774 1.3730478423037 2.4142861103939 1.5778225736663 1.3966414792736 2.5291786170484 2.34198379409 1.7823865037287 1.7252788019534 1.8382531284819 1.7792060807923 1.4612703496276 1.4957996667639 2.1064747511034 2.0406895802257 1.5082869059631 1.5861948135509 1.5238806405425 1.6467839235849 2.5410923645079 2.4792043768618 1.6391634361425 2.4790359714035 2.1527504032057 2.5227110981264 1.6236168712644 2.203566884075 1.5329441493678 1.6235780812984 0.89528731035927 1.797186647861 1.911902472049 2.0001879273797 2.1582057532603 2.1441991728866 2.0578386139598 1.435230578413 1.5983402182397 1.8867071185858 2.4098402032492 1.7709976806042 1.459048109088 2.2743394315071 1.6524118461029 2.0726481787286 1.8382527695395 1.8367082391438 1.6849658398734 2.4139640437398 2.7924441308324 2.4563724446068 1.3319619058088 2.6094347490127 2.8673117604084 1.7039269977026 1.9407371499807 1.6750289500993 2.0249108850895 1.7153384451861 2.0133274773256 1.7628453346156 1.9181994707028 0.8010050914994 1.7213143935846 1.558151266661 2.1943930235703 1.0578281525713 2.1617092221874 2.0623804923931 1.4627142384545 1.0961191203934 1.6903817414256 1.9290448473657 2.3560234400835 2.543252486592 1.7464211223682 1.4073368310851 1.1510118684169 1.8359956377302 1.6950858113321 2.2706232600694 1.776855351187 2.8179876816923 2.965755920683 1.7026528671055 2.4669304504037 1.1644815457921 1.9104473261265 1.5938256593508 1.8269875945392 1.7101925919376 1.7730745669942 1.380248398164 1.7540800478885 2.083917220108 1.7973597859679 1.5093974646935 1.5982881401419 1.9458302756104 2.0926712583644 1.8469117301276 1.7673506856876 1.3235467705658 1.6725580086437 2.4388254931591 1.3206743503587 2.0126856536677 2.802297708404 1.7382729660142 2.1721967083885 2.2132147377044 1.8805230376693 1.4038169486597 2.0066260441918 0.95000707945593 1.1122062653816 2.1252185457243 1.4222138138089 1.879462619944 1.7429834589757 2.2895998283709 2.4767511531119 1.6482645312069 1.6650615401369 2.9800445759305 1.6847387910296 1.8815762343435 2.2845974758284 1.5807813277324 2.5921231572433 1.4899080695381 1.6452680366226 1.4118929411456 1.7516575880837 2.0450491314717 1.8830272051265 1.695999121767 1.7143453228455 1.0268958227237 2.0698319308079 1.4705054357653 1.8113583799715 2.1564684064198 1.9861813395114 2.0392452111576 2.176268724799 1.7273870529011 2.4247605572407 1.7628329802576 2.4735060009353 1.6029144883215 2.0827096369115 1.719228694746 2.2912918309335 1.556537507861 2.6967858533219 2.3313785552035 1.3640183394033 1.5452023903509 1.5375148390949 1.5146353266527 1.4491028637786 1.5408485870079 1.7274912277474 1.7391961002763 1.434423710833 1.4090341572146 1.4790107124458 2.015609164982 1.9499937328638 1.5689854757846 2.7112109371986 1.7716885082536 1.264434507785 1.7005049453378 1.8903725679431 2.084220306804 2.2062816854257 1.8758665669573 1.5007040926242 1.796939501996 1.4752718171778 0.95487044647758 1.4663258625576 0.77996021355658 1.6165013610259 1.3002052390429 1.5051754280421 1.34062941682 2.7398678167571 1.9393546328785 1.5608568991883 1.8378536999157 1.6457064125547 1.5641537111462 2.6343432392419 1.6382771783213 2.3357534099263 2.9063220523869 1.4603451213336 2.4195447459309 2.0534647643316 1.7106895741905 1.6141351075164 1.4640814932256 1.9391705258879 1.9317484980195 1.653269360726 1.2257848254931 2.3069545938598 2.3206779516787 1.5836855409878 2.0339830171292 2.3769795562481 1.7297928262745 2.5378369023517 3.1588958766695 1.9558027570166 2.1978896841304 1.7302897254021 1.9553180312421 1.7391622461669 2.3237029221843 1.4666767170292 1.6124503376069 1.5643974977559 2.6469660213664 1.9483657702774 1.8035754473403 2.1334266317645 2.2680577057961 2.1663441470106 2.7723970361465 2.6077373405319 1.3019101798799 1.5995435130467 1.3638083832437 1.2708554205743 1.6592284305191 1.6526899312012 1.3387752277997 1.8706224170933 1.7799907944726 2.4911689077169 1.8027562183713 2.3546388430103 2.5436284959407 1.5485160054878 1.2983634552533 0.81824418084495 1.6559081749661 1.3494279300938 1.958399454582 2.4649295022033 1.6680042582732 1.7086812056387 2.0523381477097 2.4775895022378 1.6167582690111 1.840493216705 2.288814796262 1.38030603054 1.8607931164831 1.7099830332337 1.982651373999 1.2653567238275 2.3343452767806 1.5009113844096 1.5103136079617 2.1528593912861 1.6958707915533 2.0104877824257 2.1315441834214 1.7705679473515 1.7071488066475 2.0949740486828 1.9200536021972 2.2823956155568 1.2704008967641 1.6121175622287 2.266659043364 1.924234620311 2.4050166724472 1.4582836981044 1.7886673705433 2.1806824926286 2.1361141771951 1.6373066077276 3.0104443314321 1.5434494804536 1.7693294874143 2.9835637773239 2.3927310867853 2.263956794936 0.99836172890776 1.334369881395 2.1125381202154 1.6544517963974 2.031374430005 2.3788775558928 2.2006629657662 2.2190508839867 1.5062263888882 2.1815510855741 1.837423343965 2.5807093645869 1.9667582285044 1.9355478204917 1.8049774871215 2.833052171156 1.8527507041399 1.6232782510753 1.8940216336812 1.5184819546424 2.8048932122949 1.5987339317925 1.6419185162663 1.6404810288196 1.434527453551 1.2438496440574 1.4021179613613 3.011236647257 1.9295641688202 2.252852283413 1.6635035985239 2.3939738364294 1.5846569129899 2.5573326830322 2.1732085248495 1.9225491524929 1.8205555445667 2.0781500229908 1.4887183638189 1.4290893439299 1.739502194209 1.2359447372679 1.3608868140719 0.91249272816211 1.4914360644245 1.6687476094148 1.0748549559093 1.1680121537385 0.97899862849986 1.9753156726225 1.671310513442 1.4673412597741 1.3713693046838 2.0657113208598 1.6482906497892 1.9181968586131 1.8023685452378 1.8648527747023 2.7754485654489 2.4819795380547 1.5687900483749 2.2753007950405 2.2912331474095 1.5115730797545 1.9042063189689 1.6472653212387 1.6371703963289 1.2969713256835 2.4324215834002 2.4284059243913 1.7038865957955 2.2213263010962 2.1982812729348 1.8642960044253 1.5206652243696 1.7829960954151 1.489189691751 1.6866029900684 1.7873921004175 1.7258889129013 1.5582129535716 2.1768975094958 1.9239597972759 1.8572065814973 1.8614217622916 2.0426466144777 1.963651353043 1.6016117508487 1.9912138004804 1.8239006537549 1.7472050074421 0.24317192367094 2.4050554609331 2.579347418967 2.3139344810247 2.6319687871471 2.3116029171661 2.051551054743 2.3938527150657 1.5058677171779 2.7855497556146 1.1356175486504 2.0351242057915 1.7309487728225 2.0164135101834 2.0834209369898 1.9839806044292 2.6860873516038 1.7537291762657 2.383982451345 1.8021872616845 2.2748985686679 2.8679609511341 1.5404212376766 1.3819851729221 1.7375775702908 1.6147153166327 1.8950489511058 1.2274060075792 1.4188619686442 1.6865255963723 2.3580742704242 2.2900840907451 2.1077612511743 1.8281275646168 1.9535422689534 1.9757288852166 2.465443650214 2.5265820434259 1.6920033065915 1.4024125924315 1.3971479934037 1.6262430093017 1.8010309176339 0.95090614053206 2.2027954648927 1.6480947398332 1.6238018655776 1.7479275208711 2.0612825810537 2.6501669574067 2.3920556547495 1.4912273388638 1.8390848626872 1.6799446947977 1.7239802128699 1.9301117831579 1.5558446626885 2.7450425932087 1.9513942131467 1.4203925634873 2.505828471708 1.2894304714755 1.6889790191704 1.9766405329885 1.9461934379813 1.7714451646835 1.0814283202371 1.9827737369575 2.049100076192 2.0957072658301 2.1521842721553 1.6795066115438 1.6396357797118 1.9647843192489 2.0533219815804 2.0624361106224 2.1682567079933 1.9061121785336 1.5927354246556 1.7332948282005 1.5442086595116 2.1728266018591 1.458140234086 1.8415811363837 1.3673238849993 1.3304663270942 1.9178290666699 1.7668968526204 2.2466663663774 2.0924630694833 1.2213921203966 3.6799306774659 2.0774803166861 2.5330101209896 1.6518212616792 1.7833457942091 1.2854023415415 1.9742470713932 2.2488307774187 2.0995570446209 1.6364762309261 1.9938461361018 2.0612178201075 1.9140084340348 2.2888910037123 1.3893501964891 1.376079508387 1.4535649565503 1.4397832912545 0.91586901071865 0.54165563744407 1.3931529506977 0.92285108295701 1.8307540599955 1.2162548041311 1.53490048422 2.3789044175232 2.2384336184986 2.6381549306036 1.6750479940246 1.3735382391822 2.1812804353703 2.3850493000787 2.1159270639854 2.0809057839706 1.8420513106212 1.6954539493616 2.1890708965074 2.1079865375579 2.0916544605968 1.7313681920598 1.2623919915678 1.9365852469519 1.2746636288798 3.2005719671134 1.2868943867066 2.0346625922389 1.9679888579101 2.1509151575362 2.1134493250491 2.2452210777212 1.7091728348123 2.1216302811457 2.2575570342286 2.1167891205162 2.0917841714809 2.5468290042223 2.8052427604811 1.3184279136689 1.8713693699163 2.1156832731873 2.0731185948517 2.193309183377 2.0354880280022 1.2940568540879 2.8162791553942 1.6357264546845 1.7172774773222 1.7490806621613 1.6211300004156 2.0603335032029 1.5873119523803 1.7048252551554 1.7526161570202 1.7094517367552 2.5541391516456 1.7872923446743 1.8876816294208 1.6658616999485 1.2980975905013 1.6948428479878 1.4490462178526 1.7951911854465 1.3007363019841 2.4792737008256 1.9215495188125 1.9236742382396 2.7416166036537 1.2116620647372 1.3055099680565 1.14892296767 0.39597025181694 2.1221264922521 1.2035270222091 1.6840470798335 2.2593336457286 2.4228029304303 2.2822381402222 1.0248110193171 3.6048490919079 1.7975444485767 1.8773597255305 1.3734466884668 1.8895148054684 3.0786012995417 2.3361300340647 2.3263494621712 2.3774737611585 2.2748451768835 2.6412843380237 2.1146728307128 2.1506646613015 2.181278852064 2.2447298207851 2.2318572058385 2.1111096159075 2.1127253043826 2.6861118268156 2.2922794138052 2.3914859437166 2.0577092983971 1.7365625215394 2.1166343287085 2.3262743049156 2.5927826584542 2.8359911728392 2.1841889840052 2.0977072508092 2.427911057877 1.6855094314981 1.7533891410976 1.9224498302145 1.5033948668025 1.7597116996382 1.9371874158078 2.0382318855673 1.6992059611016 2.1083136169295 2.0074089297126 1.8771446218738 1.8173639062078 1.6168485381937 0.79014189276724 1.6831142617123 2.0259799528612 2.2048796033206 2.0073936228576 1.6849985190895 1.5640236402663 1.8067558660204 2.2016056170562 2.2620266031351 1.2716170107366 1.9452209634547 1.788022525689 2.1837508581136 2.3172915084435 1.6861431282781 2.5607085492014 1.8807135428595 1.1500134813542 2.2777800830929 2.3913893262437 1.2298420611569 1.2416423390736 1.7118691045674 1.6452255006817 1.7524601307169 1.6054976626908 2.1121872945418 2.2412880154062 2.1470629372548 1.5292912650139 1.4702142724594 1.5738084926972 2.5218854388354 1.900847425938 1.8470581322347 2.245760462158 2.1360271066118 2.4441234269831 1.0423764543168 0.95229191315686 1.2886504391377 3.4346062020613 1.7169898593835 3.0190105862476 2.2706582977055 1.5659433340956 1.5929757911453 1.8525515038713 1.8213503441178 1.7110775700388 1.8191419894029 1.8232810329501 1.710634712059 2.040778143817 1.1468609984149 1.263701670482 1.7038666626615 1.1261404360514 1.8772480168016 1.5737672460636 1.7414465447804 2.18804778218 1.6072747775828 3.2812480646529 1.9519690953024 1.4498525223663 1.1882541136786 2.0321077339855 2.100885603674 2.0659039151413 0.90665998186303 1.2663265680298 1.2011533192444 1.7445244578048 1.4319388655821 1.5064867373827 1.