# vtk DataFile Version 3.0
d-3__ libgimli-v1.1.0: I=4 lam=20 wz=1 rrms=110.558% chi^2=0.846078
ASCII
DATASET UNSTRUCTURED_GRID
POINTS 488 double
2.056098588435	-5.046854818664	-6.535842662675
2.952496453214	-11	-9.071616679161
6.618679758214	-6.085967230734	-10.139427474564
5.921466559117	-8.56281341256	-6.579852406563
-6.589772086175	8.817693974959	-5.032836255414
-7.456424766767	11	-8.531530613648
-8.269125497403	7.677180691964	-8.800106381944
-9.373513980084	11	-6.50998018986
11	-9.623359386581	-1.065371683303
9.204392252705	-8.264335040134	0
11	-8.75	0
11	-8.417487255696	-1.441524244981
10	10	0
10	10	-2.5
8.954208646248	11	-1.212187388043
11	9.523198680788	-1.115828158078
10	0	0
11	0	0
11	-1.25	0
11	-0.575379592621	-1.429520530143
11	0	-14.2043
11	2.750048726052	-9.500318484382
7.464567985486	0.051704139931	-7.835158067459
11	-1.47686794996	-10.09281414796
0	0	0
5	0	0
5	0	-2.5
3.251159637515	2.49970172174	0
-11	3.75	0
-10	5	0
-8.469270829822	2.9742777851	0
-11	3.835195987438	-1.225500135778
-10	0	-2.5
-9.538421716503	-1.859455360525	0
-8.753043453279	-2.333754178184	-2.281265590866
-8.338803398701	-0.195492269697	0
3.926950273557	8.429587983656	-5.434710690593
7.573013910667	4.192445991868	-5.478220440327
2.719327598846	6.976577021744	-9.799821050214
8.085323449398	7.437044290467	-8.350717684539
2.571059227139	9.147381449944	-2.616019466683
1.66892008996	9.671300202883	0
3.551520487731	11	-1.423834688183
1.777176051215	11	-1.701045424272
11	-9.822733550051	-2.499135432869
10	-10	-2.5
11	-11	-2.5
11	-11	-1.25
6.964944485764	-9.018768084093	-2.060588117181
9.158437334364	-7.427672813074	-1.837158939527
8.44985025903	-9.830260403807	0
-7.737478180165	-0.951312666993	-6.928375267817
-11	-3.6637968465	-5.776117842308
-9.161828177958	-0.92653104664	-4.344833718125
-11	-0.864283582608	-7.018625919073
6.573305384191	-11	-2.847240682639
4.812362618405	-8.949821680236	-4.451818358765
5	-10	-2.5
-5	0	-2.5
-5	0	0
0	0	-2.5
-2.5	2.5	0
5	-5	0
5	-5	-2.5
5.045154670843	-8.073481826115	0
3.067422670805	-7.261485866827	-2.119989769555
5	5	-2.5
6.670827432886	2.426402154651	0
0	5	-2.5
2.5	-2.5	0
0	-5	0
-2.06174787423	8.912216499171	-2.076458176898
-3.215520554776	11	-1.689667865568
-1.824902024377	11	-3.150289272683
-3.836816761646	11	-3.614146971252
11	3.645297524225	-3.9086550906
10	5	-2.5
8.857400916309	2.025743082884	-2.577151141411
9.224359971935	1.509639330139	0
11	3.223700057311	-1.758402794227
11	1.168924728731	-1.340539822899
11	2.5	0
11	3.75	0
9.252816092787	3.408134110708	0
3.75	11	0
5	10	0
3.580023334579	8.865035339898	0
-5.192459779503	2.380356925378	-4.448306288013
-5.375709899	2.58137177061	-9.139794904729
-3.180117208428	7.647000299019	-5.130398776234
0.195367191162	3.003700776566	-6.784332420172
-10	10	0
-10	10	-2.5
-9.17350825047	8.24691647455	0
-11	9.415661710766	-1.306022396122
-9.804087515704	11	-2.540338011008
-11	10.053818948484	-2.605145631405
-11	11	-2.5
11	1.596462377968	-3.313897908268
11	-0.42205666953	-4.548575156933
11	2.107925127162	-5.694793279626
5.195608695109	5.901670114641	-14.2043
-11	-9.856928559761	-2.604499489287
-9.981759101839	-11	-2.634423076023
-11	-11	-2.5
-11	-11	-3.9630375
-6.830933518139	-6.754306280461	-9.844573707464
-7.402898545215	-11	-9.915083277909
-11	-7.503660261283	-8.32423306598
-11	-7.727214750214	-11.447667213906
-11	11	-3.9630375
-3.521680698097	7.87761507569	-9.350580539679
10	-10	0
9.533411651734	-11	-1.116786764417
-11	-3.161512262017	-1.692693135011
-11	-2.5	0
-11	-1.41026118559	-1.389005571279
-11	6.51414603003	-6.608794195967
-8.079781982556	4.496796982665	-5.911701705462
-11	4.212594203093	-6.428751463506
-11	4.563072947317	-9.096493192419
0	-5	-2.5
-5	-5	0
-5	-5	-2.5
-2.440880110421	-8.505757280811	-2.199875110175
5	-11	0
5	-10	0
6.25	-11	0
4.965403438217	-11	-0.945607016317
-5	5	0
0	5	0
-4.199063678393	7.645780388229	0
-5.561440212393	3.770950076936	-14.2043
-5.365971599237	11	-11.817629255855
-11	2.113497921828	-7.031936496866
-9.696037350388	1.726165286055	-4.789040926745
-11	9.765787173007	-5.029810435647
-11	11	-5.426075
-9.710359344868	11	-5.022706116061
-8.344383380757	8.121248732261	-2.225859553268
-11	8.189402834507	-1.182182071491
-1.510656426281	-9.675296882625	-4.467340131673
-4.490587316639	-11	-4.043548102493
-2.090624418131	-11	-4.723122061696
-3.05007490687	-11	-2.891078197139
0.988915901624	-0.401466618618	-14.2043
-0.82814068751	6.235780627618	-14.2043
2.5	11	0
-2.956707428208	-1.478545055813	-4.809392828753
-11	5	0
-11	5.411776226705	-1.119695560088
10.001433074551	11	-2.650801744075
8.327882006409	11	-2.966846730407
9.632598129075	11	-4.176502818423
0	-11	-14.2043
-0.428903817072	-11	-9.35718865681
1.778916784274	-6.71141942223	-14.2043
-1.717158970851	-8.610142128508	-8.683576356256
6.986409950657	-9.158030842229	0
7.760388681671	-6.421406794769	0
-11	11	-1.25
9.024327747846	-2.64936234911	-2.888810606817
11	-2.797140391042	-4.017204451375
11	-1.233160583128	-2.853547564213
-10	5	-2.5
-9.682594184749	6.615058742277	0
-7.911632948864	5.232473785784	-2.549492949208
-5	5	-2.5
-5	10	-2.5
-8.613667033982	2.449038679589	-2.644399949175
-11	3.354170792335	-2.898019435113
9.815611359456	-11	-2.588153459961
-0.016802257773	-11	-0.952862191856
-1.421540591473	-9.731027764311	0
-1.25	-11	0
0	-10	0
11	8.094179597793	-1.671917541091
9.11721496716	6.9992241413	0
9.826573559214	8.45440283372	0
8.494940033555	8.337067490154	-1.865596625144
0.3314332294	-7.87495624483	-2.538811440469
1.423212720389	-9.253836053535	-5.173278576554
2.575675424487	-9.833268664735	-2.532569834587
7.712145096498	-0.843734481805	0
5	5	0
7.456401898297	-7.77027458807	-4.416216550647
7.819362958217	-4.714613726452	-5.613088135201
9.167311516026	-7.267591895112	-6.611404010072
-11	11	-8.35215
-11	11	-14.2043
-11	7.923126127364	-9.971337335921
-11	-4.892429560345	-2.556717429275
-10	-5	-2.5
-11	-5.139944125111	-4.234626010611
-11	-3.427001472548	-3.612904473086
-9.71894631552	1.336465978879	0
-8.415398943529	11	-3.259288026485
-6.869751424538	11	-3.008647079328
-11	-1.25	0
-10	0	0
-11	-3.750136807731	-9.573593886165
2.513769663555	-11	-5.008574896003
5.172615890062	-11	-5.945885437309
11	-5.111158125642	-2.34548900125
10	-5	-2.5
11	-5.405513575114	-1.100406418415
11	-3.925688653576	-1.200693900895
-11	8.402386010128	-2.779430588865
-11	1.786825363627	-1.62100477454
8.22639894513	-11	-3.397755047982
9.003668886274	-9.150761587873	-4.123429916277
2.5	-11	0
1.25	-11	0
2.105838944291	-8.520126080864	0
1.454577211373	-11	-1.375716584282
-7.873600528933	-3.702735814287	0
-2.981654873502	-3.664376330377	-8.988811998508
-2.5	11	0
-1.193303541258	11	-1.268316160856
-1.485941949916	8.847623000961	0
-2.5	-2.5	0
11	0.17537540225	-7.204377262234
11	9.79750100756	-2.564925793002
11	11	-2.5
11	11	-1.25
0.190795353659	-11	-6.396775396038
0.200178909028	-11	-4.021836418486
-11	7.5	0
-11	6.25	0
-11	6.78656808341	-1.667376450872
11	-4.669531826042	-9.056333973441
-4.731529405979	-8.555742486126	-5.616359966887
-6.468146223081	-11	-3.452236037536
-6.038456664673	-11	-4.981140940801
-5	-10	-2.5
-9.388274671054	9.40790996322	-4.692680636336
11	-7.5	0
11	-6.25	0
11	-6.705977010771	-1.656552756551
9.706968549966	-6.630372140216	0
-11	-7.5	0
-11	-6.25	0
-9.224939467167	-6.73554640456	0
-11	-6.132024429223	-1.268905143099
6.401985643569	-11	-1.358047288169
10	0	-2.5
11	0.069960272042	-2.670142961353
11	6.389096118413	-1.406811382112
-1.25	11	0
-5	-10	0
-2.924321518515	-8.52031813788	0
-5.25882659921	-7.98923563882	0
11	-2.270209457066	-6.717400117686
3.649267785122	-9.688608778627	0
0	11	-14.2043
3.272318149126	11	-3.180010719729
-2.405427984259	-11	-7.375834270167
-8.75	11	0
-9.534907098081	11	-1.114157579783
-8.429313872849	9.820334141943	0
-9.530563796767	6.875001896806	-4.93106961225
-11	6.453039752202	-3.874817552941
-9.879902587288	4.695122034377	-4.022755607991
11	-7.939261344074	-10.086337362643
11	-6.754721597518	-7.035954584988
11	-8.989910637097	-7.208301552213
0	11	0
0	10	0
0.393151005712	11	-1.143670672816
0.259582997361	9.242439935694	-3.694258363286
1.368683848361	7.842312241907	0
11	-4.562544742125	-5.904948733317
5	10	-2.5
5.011092358304	11	-2.410007551306
6.803726299237	11	-1.59567990723
6.478844059865	11	-3.396794241039
11	-8.409872904976	-5.201429642222
11	-4.779360220885	-3.835633530127
9.31581540367	-6.151361342438	-3.802968086739
8.262119507769	9.218730626904	0
-5	10	0
-4.617402887586	11	-1.131701353439
-6.214234539027	11	-1.254079199495
-10	11	0
9.612429889265	-11	-4.258862271921
11	-9.626665996311	-4.022071166777
1.220699174791	11	-8.065680653229
-0.058649594648	8.518189790613	-6.156280449557
4.98567685346	-11	-2.349858890743
3.596345435288	-11	-3.299745826092
5.156189874936	-11	-3.836398374364
-2.827157405684	11	-8.270857257804
-6.531553759463	-9.353051751782	0
0	10	-2.5
1.370843685119	11	-3.424861094038
-10	-10	-2.5
2.229833222496	11	-5.017866522219
-0.356902797281	11	-4.957706133615
-5	11	0
11	-11	-3.9630375
-11	5.5	-14.2043
-8.158670993193	11	-1.652285218895
-6.859585970652	9.092574753123	0
-11	-5.5	-14.2043
-6.249370276227	-2.182178128947	-14.2043
-11	2.5	0
-4.991402457457	11	-5.691849439348
0	-10	-2.5
-0.427009185463	-8.319987007082	0
-8.165378837044	-8.348997184491	-2.931726543623
-9.284925197363	-6.550954257661	-5.634376482206
-6.81874080749	-4.403860148035	-5.548659955279
-8.175887781393	-11	-4.902273818577
-8.238149491415	-8.883964929677	-7.082323330982
-11	3.061289959016	-4.722960385982
-2.988781061687	-6.180450155971	-14.2043
-3.419590360509	-11	-10.495759940342
4.262272895827	11	-10.087379739407
7.5	-11	0
-11	1.460184340246	-3.405749207813
-4.861300199347	-11	-8.128773288418
11	-3.759479822745	-2.688206375613
6.678353548244	-5.695694470177	-14.2043
-2.725601736431	11	-5.01758034325
11	-5.5	-14.2043
-11	-6.803980384254	-3.405376632242
-11	9.503577547189	-3.863653014223
-9.377054548459	11	-3.96457781054
0.055766060012	-11	-2.380105690451
-1.697499176172	-11	-1.578624930089
7.459335037605	-11	-9.241478486314
7.610587109325	-11	-6.132876920548
[...]
CELL_DATA 1559
SCALARS Resistivity(log10) double 1
LOOKUP_TABLE default
1.0440522256711 1.0241407820716 0.59837571663488 0.86568627170562 0.59590423592288 1.1687508764942 0.69128074667203 0.53468932204463 0.63398236927747 1.0465456537286 0.85520096521117 0.81160514914326 0.75362801788345 0.97300979790649 0.79631018684067 0.67030742538796 0.72568589620352 0.70727084393474 0.6746379700172 0.69940924640713 0.79709215973272 0.81313133090202 0.6043940203638 0.52602899781985 0.9281258829539 1.018326092304 0.67232116611536 0.85133049119206 0.84755171841556 1.1614909367462 0.90948448783027 1.0976527845857 0.86418763982715 1.052586574309 0.8077374219477 0.59765591551699 1.0310865915697 0.71552082064094 0.76698036007049 0.65806767761742 1.140901489959 1.0292563769403 0.96175753866984 0.71377209811684 0.84050973634104 1.1744289733723 0.92957519253443 0.93559030493105 0.64009981120247 0.91424744846728 1.0725984514537 0.66394146971112 0.84189991692398 0.80356532736716 0.6896525937146 0.85141108367667 0.69615272874539 0.82230738678986 0.74911453009742 0.7660038979565 0.76121415047511 0.59332100398139 0.6935220196317 0.96592161189777 1.1085810413471 0.78693577592475 0.57157463443075 0.86045612478664 0.62962929522059 1.1005079715532 0.86405245584552 0.86769188819601 0.66405950718879 0.94181054790872 0.87810938978157 0.76189185972152 0.55733824568974 0.84143133877942 0.76665936659282 0.60324569822883 1.0211669671598 0.77927433494378 0.68997064606188 0.69046560355518 0.83988735497887 1.096843217426 0.89192675399669 0.85417150995359 0.65649204583342 1.129809159025 0.88855387355168 0.9925002473343 0.62524822491799 0.79264170996923 0.82324105754871 0.72932519949461 0.69033154132545 0.63834101289469 0.75852554884847 0.62271547180816 0.89582500474854 0.75805075604684 0.87549415955941 1.0651028186494 0.83011955788478 0.79170269851381 1.1276271403222 0.58704869251026 0.86337938600038 0.61814057300477 0.84225630311779 0.90132922310745 0.83901895780868 0.8286739369213 1.0434330807368 0.83525339968108 0.67431309082876 1.0314601527915 0.61291193450461 0.67359090523448 0.73658647852902 0.95407665864571 0.69697326245552 0.85155993351921 0.82757155335496 0.9931844084551 0.78040422572462 0.77959789660591 0.76678999583383 0.86170945141444 0.86738124902901 0.99751365205065 0.80264279455563 1.0782625912097 0.80474927573405 0.84619809596143 0.79982113228649 0.90481163416354 0.92036100715962 0.76463599155223 0.83397771823055 1.1354918902219 0.67429439717138 0.73674633416961 1.1504219770684 0.50783803897221 0.91514592585732 0.74174141164805 0.79850689632059 0.6831466107523 0.89571250615752 0.85942688006031 0.95069567582585 0.9375667953338 1.0507839591557 0.72349481732062 0.69315541318161 0.70677631786947 0.80892638471535 0.8337853964551 1.0926748676328 0.84819464923314 1.090455704093 0.70050828588841 0.83728960012289 1.0377709615409 0.66602266261189 1.1638240551975 0.93918777280176 0.93439346720003 1.1325378501321 0.67698291421579 0.84150455598666 0.78208512702078 0.8208503444071 0.88858915769585 0.75756083873782 1.146036217384 1.0083279107995 0.97108687513249 0.77918628825387 0.94531181810141 0.7887987667063 0.94362069290475 0.64035653008764 0.63727409332235 0.90398052852749 0.94062775995277 0.94793072657032 0.6267049605393 0.61507064437032 0.59112723409685 0.79504317745952 1.1366691674538 0.68370191385571 0.75183169012591 0.60812184680688 0.96114884103317 0.88641827660206 0.88381103332368 0.55446963878321 0.67965830059569 0.91925782107206 0.77416446575097 0.85727924480223 0.78094498715746 0.83769419082999 0.79928105761456 0.83352392133408 0.80982554295831 0.83560371642978 0.9374974830881 0.8100194933701 0.85580653546298 0.93761563374149 0.75955578053038 0.81669179690718 0.60116091611166 0.8084478145508 1.0988757631989 0.81283928994358 0.76159157485922 0.69857678745902 0.77127418280431 0.90850187052184 0.82751681762705 0.6268147509751 1.0184374293193 1.0495295797858 0.48007927351781 1.0589268078249 0.95946620342844 1.0245099188614 0.67048681379038 0.68984784245545 1.1795924324894 0.63788104513417 0.72348468679445 1.1312168715033 0.71815312254684 0.59729253089428 1.0320015338113 0.73492349678289 0.59217248477755 1.1344299370813 0.94817259859629 1.1927734084996 0.63372749689643 0.65553977635198 0.92502030767605 0.70286848919483 0.72476505392432 0.51558346138894 0.93236279458401 0.63473121773269 0.75712742897125 1.1306568115721 0.85168099912293 0.85019589302794 0.90077926535889 0.64528242334962 0.80445539594477 0.87194109368865 0.61566268744223 0.90420878083542 0.94515450540032 0.90441978580583 0.8023191462003 0.73509647955222 0.5952244883412 0.68113538948775 0.75425529092263 0.68718869634319 0.77206634907008 0.7907093810508 0.83238715050798 0.6648713563288 1.0982503319705 0.96291204940727 0.77736899557029 0.94764498140943 0.67891064631213 1.1952461870105 0.90123253170034 0.90010309342284 1.1262522411456 0.88268738506859 0.66289502115895 0.90040751413972 0.68470260736713 1.1685801210927 0.86353535118099 0.98419971049962 0.83199002631363 1.0634694148716 0.7944186421774 1.0618936039794 0.90156737140187 0.77252126386658 0.55097888677178 0.56890430552884 0.81892856537032 0.66898984654093 0.76030251830245 1.0229359018543 0.91635503546387 0.9069304501031 0.78389421528232 0.78625085582521 0.7077557959332 0.82231859876499 0.69916431352207 0.71998606899675 0.81007166219529 0.90035917764699 1.1503145715107 0.85894547938179 0.8961575233584 0.79431654280598 1.1986264964697 0.86825164931162 0.67186446621721 0.76116370326198 0.80128286755895 0.88103051906581 0.90956993376379 0.93673891349818 0.73036530298465 0.74767335037953 0.85917825425209 0.67653368715618 1.0371872855638 0.96809145984646 0.72611924788534 0.76971853113564 0.92670391958363 0.90001375281307 0.80302049814651 1.0183116807237 0.87086234584234 0.81141732610884 0.85644094451936 1.1517501182626 0.85645863392444 0.81812880639772 0.90974953814509 0.87698581172366 0.90227175097211 0.49071063122719 0.61913395570807 0.87817480186043 0.92698578054496 0.99324094405498 0.88719811862908 0.98670611897693 0.60430711206721 0.80980082722231 0.64161441074601 0.85668693624442 0.80173085947383 0.50468033016956 0.66105919180823 1.0444756588885 0.73743586446777 0.8243732382412 0.86629693022599 0.72081223848028 0.86295002093693 0.78840508274567 0.60677643105505 0.62204643554682 0.89156566919332 0.7640391769251 0.64067150679689 0.64634722481669 0.68768883279757 0.56664300112708 1.0005429541372 0.79852070905698 0.5772522197911 0.82530990153392 0.78696544661762 0.90517959704574 1.0510571657188 0.55218214548968 0.72070256590831 0.60540633512617 0.6358023289155 0.60419669606099 0.71997171473444 1.0187491767515 0.88176027970389 0.73686780773453 1.1279092567241 0.70396279166434 0.77692764201605 0.75413911150337 0.78374373479289 1.0333685878292 0.59215533077706 0.8341169762581 0.90779316302005 0.71123055152005 0.67933950596376 1.1514584688299 1.2224295564811 0.81860702032899 0.97861498672145 0.74723554016656 1.0498805217197 0.85613357854717 0.94612904770709 0.86036434211112 0.68423132734411 0.98933229576626 1.0273793306743 0.75776231311056 0.70594491667269 0.99593310604312 0.78156205330704 0.74404610497923 0.83172564695904 0.6539045185775 0.86905326059411 0.7623212364789 0.63666950106134 0.73375156766828 0.823949945325 0.78190228399712 0.80180269790749 0.85409822775101 0.7100147027393 1.1269979326261 0.61027282368563 0.9734092019341 0.93217752859648 1.0486393416889 0.99706040432547 0.88514189159717 0.7999044159974 0.9689435756519 0.99189809895922 0.6754211273271 0.95517601621739 0.67015182067701 0.83425372574685 0.96034189526019 0.68386718490616 0.78571487878366 0.8657447543401 0.77324442396422 0.75303906093608 0.75149138547433 0.82484350300922 0.97085652962823 0.85381703123868 1.1882819888443 1.01205070852 1.0029691648267 0.76025261139692 1.1734814077301 0.99026132355889 0.91134084992567 0.81834320944861 1.1690919141574 0.64973462978717 0.90572373518541 1.0471832673387 0.67128932694698 0.77976063909928 0.83454462463527 0.78719256833087 1.03846759068 0.83903562940689 1.1565936727268 0.62772273449879 0.63015452517377 0.70455139116632 0.93593282797402 0.78239303390619 0.6436281232466 0.82570846913648 0.84008974664204 0.85892860836707 0.6220082465252 0.73334147931879 1.1633509658995 0.73666506072838 0.75848263624225 0.71727830218703 0.85779192946451 0.86378111361581 0.86837882312608 0.80712482660164 0.91461144462455 0.75344100257919 0.75662244850697 1.1823191130389 1.0107946588822 0.7484069218685 0.83738839359164 0.86393506393542 0.71021349414928 0.98046503736144 0.58765090628546 0.7315131246497 0.85334943313093 0.8973881869791 0.57060721435748 0.8376913626571 0.81768749587904 1.0442929765206 1.1462356857403 0.83881433241147 0.70251054401463 0.5619085918694 1.0217679903219 0.64485563036673 0.71227058915845 0.81894024958148 0.79728443835414 0.63048294215675 0.807112464656 0.7813525815664 0.72541942051673 0.73987543803048 0.83721200726145 0.77369993516499 0.72006568518475 0.83011471651952 0.66802997444267 1.0971033282813 0.84400711709631 0.98074799861175 0.83483266056846 0.68065562640515 0.86728481358685 1.0542233603382 0.66922308671657 0.85678101094747 0.88865686864539 0.8675639245469 1.1371910641477 0.9636184781069 0.79738492111548 0.78295848525523 0.70196402503171 0.95118014284748 0.71363437044977 0.69163626551866 0.79450951544893 0.53900643351187 1.0334274727258 0.93934079469816 0.87914938371066 0.89331588269744 0.94529903286212 0.67479264363279 1.0465550428096 0.49955544826654 0.77224401268991 0.67135894142395 0.79315130426446 0.76389543665512 0.81886755875059 0.84893817811881 0.94181521311737 0.77477230717271 1.0313071155148 0.7895787208454 0.76141280682502 0.85638970837574 1.0282278692823 0.84979600262914 0.85327662950848 0.92719474167807 0.67905430221041 0.6811764013039 0.87961734087257 0.7274197541664 0.81105062551816 0.77948941162957 0.85868129466303 0.81103976268511 0.8869952438098 0.86318067649847 1.0748585643062 0.89358014855406 0.84355177102178 0.81847690945369 0.7001540413747 0.63235635635046 0.79645556188238 1.0519603461736 0.83236624608622 0.90909277364467 0.81901301901096 0.95489971111544 1.168486591431 0.75406779020127 0.91436925109834 0.83245377450078 0.77338569435615 0.78985905082977 0.98735870388853 0.75608610437978 0.63803996771264 0.66187304421624 1.1646659568063 0.71110548443382 0.64731295292057 0.83765728871479 0.56384552916255 0.94472473684661 0.61459025092612 0.89936330780871 0.89916254448179 0.84379731718523 0.63829696607203 1.1385033454514 0.91157241107755 0.79967949522836 0.7921529378153 1.2204793198588 0.72568519439527 0.83395520970896 1.0129609428435 1.0806322181266 0.93224430136757 0.8862679522712 0.83721802227154 0.83974531029469 1.0430438873354 1.0931732178601 0.69497424355935 0.86922105926391 0.9687804998265 0.85542507629279 0.82247578314936 0.82196116026017 0.73671014748669 0.76699022184827 0.68898374340814 1.1431617299986 0.92423447328319 0.78972464597941 0.70480146867656 0.93427064287104 0.87045724537449 1.0585794022063 0.98301006785375 0.73981917262562 0.68668167461817 1.0473934196269 0.79608207011049 0.83623801939202 0.65099568358634 0.95675822700575 0.89416724911012 1.139331687948 0.65535107213112 0.73645321657003 0.67709835487553 0.6189820124658 0.62325827291458 0.91608356679998 0.59843939935641 0.66147663949273 0.92694090554948 0.79548829565148 0.83129441390638 1.0870667617455 1.1021654871645 0.86269149044458 0.79806044805492 0.7870643309561 0.88639709253526 0.81248172442817 0.69875434642112 1.0505133921585 1.080616009185 0.71192190438281 0.91818766173044 0.92789695749629 0.81266758114125 0.77356543341123 0.77366344603707 1.0297023144881 0.99240312987451 0.77639087337759 0.92376811699489 0.71705049193845 0.88557912854444 0.85918730556114 1.0063527098499 1.0653100784596 0.9507375059268 0.77282850215807 0.78180629390377 0.64518696364852 0.80572359693856 0.79979898203527 0.8027533431092 0.63872220403518 0.71826854269209 0.81476437925217 0.68639331482126 0.97575876208446 0.83154385441796 0.76190016904441 0.76741158837044 0.82811923559914 0.75633713289196 0.69315487160412 0.76901135280663 0.70152067731907 0.77444423062834 0.79017111478689 0.80843795495132 0.771066189459 1.0413410941132 0.91258512319062 1.137394148838 0.99530323579581 0.79522380621755 0.93206435802084 0.69650890650476 0.68751215387649 0.69095506213462 0.67289787345709 0.67676648182651 0.71059250479159 0.64731357377836 0.69835531749667 0.75956676375931 0.81330559965219 0.8697716581695 0.90365298516006 0.97613101055973 0.96659537296347 0.90000426851187 0.75708143123834 0.69133031903837 1.0968606723312 0.90231353001487 1.0428935356091 0.79805498996015 0.88088028245227 0.96972633695923 0.92000313768509 0.84087203700395 0.83453230228374 0.53888769000601 1.028551526748 0.67129096836169 0.58288698747294 1.1023395348591 0.70686234189062 0.83952811944054 0.86559931046488 0.8447203549647 0.92342823163299 0.88220241509614 0.77637675557591 0.93308940145295 0.78192771969754 0.7815328150731 0.73862436232496 0.85497005741871 0.84038392266446 0.61633533540079 0.85916923075762 0.82838209824784 0.64030583133643 0.81576356287379 0.67672922290236 0.86940929101703 0.8421771280401 0.97596095208112 0.78837601858762 0.99168672510624 0.83980066637853 1.0746995472802 0.69954342997399 0.89718551148437 0.79403569191245 0.75745491857946 0.7225910384867 0.75946053900883 0.60747976455972 0.57396449568311 0.83500762259563 0.90863682393212 0.88027593775024 0.85947060438374 0.934809881244 0.93759593737023 1.0983405367047 0.61199176105893 0.82412624907823 0.69975558814067 1.0228616417998 0.79318009489784 0.68314996141333 0.98284941396137 1.1527148116695 0.58246538552328 0.88473730425141 1.0988775224411 0.62146646702147 0.6405199054405 0.9238776533281 0.84893742763767 0.83261170137791 0.61567335552527 0.68149854584538 0.68656434130591 0.65136624479831 0.81244172079827 0.81389102961281 0.99077040070554 0.80122559813193 0.78977104257543 0.77565241837672 1.0065684028531 0.9831019737893 0.87539150774875 0.98122550435147 0.90556003952741 0.77236652811991 0.80582974759315 0.81098732480352 0.60539835793368 0.92158040483438 0.82144295627317 1.149049422919 0.9724342072407 0.64508701687574 0.70393065825853 0.59872678420542 0.7516804512758 0.81439823255029 0.77671573888611 0.85680748661135 1.0367619557856 0.81539633074685 1.006142835549 0.60425072167391 0.607952746606 0.88366542209612 0.8019785847 0.84921648019265 0.84163023443118 0.73234665214047 0.79448452973447 0.9229037275792 0.73921460338453 0.78443342787675 0.76155876181624 1.0623086740259 0.79447559828659 0.65102246779983 0.69091901139881 0.7533870307159 0.88231942237331 1.0307545926964 0.80558394431772 0.86199204287963 0.92328628570575 0.90500315721072 0.9406291652366 0.62169316931064 0.82221124471132 0.96994356145174 1.1378695482673 0.7781484134575 1.1345614397399 0.66255882834289 0.67558108245762 0.82647080193619 0.80570466623615 0.90397710496153 0.85272155774892 0.98806100348409 0.64564064397647 0.92616101227163 0.82558312641816 0.82813001634403 0.91122575227839 1.1089085401343 1.0643516263879 0.93663852087474 1.1587278135259 1.1348602239136 1.1655699953295 1.1384281238909 0.83229350345648 0.89896095757159 0.8552479201942 0.85701966901398 0.82287271985467 0.88897080667561 0.93569188350635 0.92697841437174 0.8839090905743 0.96813403316733 0.89457029959694 0.86938535956342 0.77654957769918 0.69680533153032 0.77127182391162 0.77323962660113 0.79914545210953 0.70803130023842 0.98624949683408 0.88576522704642 0.94648296381542 0.92905011344214 1.0913875837021 0.81932242343809 0.7677046720396 0.87506817178241 0.67877186424904 0.70973742387301 0.5880486778216 1.0107729815118 0.95189015120928 0.87115494396369 0.80638173337968 0.79635908575063 0.81355893039102 0.84759358913452 0.76989257898033 0.8785338141101 0.87811341806345 0.88102096112584 0.84862357511476 0.84872796795922 1.1311321987614 0.91375523049631 0.89258497637433 0.915359733878 1.1400869175881 0.81063058003167 0.75734938563646 0.86153148587832 0.78437329671301 0.75113532339782 0.7478275800878 0.74423868036664 0.76352018313451 0.76296044814552 1.0313530725461 0.71926080768713 0.96535753535058 0.76255784573677 0.8038945461142 0.807386769953 0.651904450929 0.7824178310452 0.81128526544413 0.67168644544114 0.70546223837276 0.59268282803226 1.0105159008037 1.039565667129 0.92686865835212 1.0209948744132 0.92740489813538 0.60790400860259 0.58062459058851 0.62880743203037 0.7807671962724 0.81986165969244 0.84786673887011 0.89053369520854 0.9736281377716 0.86257463945899 0.79058920050567 0.86609262028522 0.89952256911098 0.86297201612082 0.84882072856511 0.93167044709301 0.79300494483035 0.98956336658271 0.8757451484559 0.95744075696826 0.86630759414581 0.88126019955152 0.85517595094643 0.66870055240604 0.61944818471723 0.76535149213055 0.85967361569382 0.95660527987377 0.91068871106706 0.88569959298916 0.9374438130206 0.56860639299092 0.96539426656492 0.83362733134125 0.74660015241684 1.1422770694607 0.88770853034764 0.86937757267262 0.85984547582054 0.88903921353092 0.90310235057963 0.70002337672342 0.92406434295652 0.79695267068124 0.87062717785626 0.9187327529408 0.89972569724442 0.94477967893786 0.82629878856266 0.87906323163098 0.88733628087541 0.79671626255495 0.76624963487015 0.9179621750343 0.94408957580034 0.83687738229466 0.91205547138074 0.84792916999648 0.89129878206947 1.0847820981581 0.73211989405053 0.79712126801053 0.86306681043812 0.81049809049943 1.1852483410688 0.56242871130589 0.8201780248 0.58215992609955 1.0962909948092 0.73921242970456 0.80270927503668 0.92833097694061 0.77642689611325 0.9127195586303 1.1377146724383 0.78733810340043 0.90300864240532 0.88885197845117 0.73111531967236 1.0692770303128 1.141220387959 1.137166568501 1.1254911588532 1.1936169744372 1.1628876316785 1.0181650345968 1.0775725268291 0.95760349797116 1.1879710939224 1.0603931765954 0.58003206155328 0.61779912403804 0.62531328372252 0.75198651232063 1.0831931158044 0.83387456169875 0.76308337947814 0.62291911474395 0.85143296932029 0.71156978266661 1.003875881314 0.799593007285 0.83409706804343 0.63897421267555 0.82811947761792 1.1497173575047 0.72620141462045 1.143610162336 0.6899821257167 1.1224804179128 0.79080747957159 0.8268663181721 0.82995743679785 0.71053776147733 0.76600310060803 0.7860063552537 0.7044921574376 0.59159796236702 0.68210825944497 0.74437058841136 0.63459201493778 0.61092211084305 0.76544787420019 0.81533082002543 0.78271569247517 0.80217937618173 0.78574510443994 0.81066922529367 1.1504069637218 0.58914171536641 1.0661939439962 0.91997680271079 0.83099339363045 0.90472854685427 0.92280719307247 0.84156839567758 0.98234595252914 0.74505734377051 1.0044802364675 0.88852204804483 0.85750485836144 0.97146776922653 1.0810943922713 1.0993503626225 1.0089325063663 0.86506381109868 0.81755303101655 0.84871475882384 0.65664319417983 0.68966389301034 0.69560462098467 0.89249529297523 0.89963391350909 0.93179760780277 0.87691847228484 1.1223171417575 0.80890499192607 1.1613135462714 0.88057455490288 0.65049307314997 0.76527365325876 0.78943972574981 0.73353544441214 0.61115376043225 0.87575802828056 0.92966596716978 1.0601513590211 0.99406146919174 0.63246228503509 0.71742803720105 0.74650469506985 0.67282992981838 0.64311922919139 0.64536454764948 0.66903646931399 0.699564798249 0.78935884194174 0.73521653544137 0.81007508351519 0.73220854404971 0.80633265514927 0.61024524399462 0.60339870811054 0.63763172355963 0.82512989108963 0.8385608943636 0.77748284995568 0.76532435685825 0.54593323590161 0.55502461858805 0.86049732005548 0.77466650626631 0.71109658560218 0.99011638794624 0.96414643606788 0.81916341320264 1.1248654455494 0.91492904238621 0.53257153911407 0.79899819702216 0.91789108823938 0.48637501579874 0.83667888536859 0.82958704139104 0.954768921456 0.81744997824637 1.0775339346947 0.89699648384397 0.7669756280749 0.81806902029556 0.79810908290747 1.0304714965539 0.97909242134018 0.89722693312419 0.79202564403466 0.8579359509477 0.74093980093756 0.71923682089969 0.72406032116007 0.89596763177027 0.77760314122609 0.92803595541321 0.80776599338002 0.8730743