# vtk DataFile Version 3.0
d-3__ libgimli-v1.1.0: I=9 lam=20 wz=1 rrms=122.929% chi^2=1.48096
ASCII
DATASET UNSTRUCTURED_GRID
POINTS 488 double
2.056098588435	-5.046854818664	-6.535842662675
2.952496453214	-11	-9.071616679161
6.618679758214	-6.085967230734	-10.139427474564
5.921466559117	-8.56281341256	-6.579852406563
-6.589772086175	8.817693974959	-5.032836255414
-7.456424766767	11	-8.531530613648
-8.269125497403	7.677180691964	-8.800106381944
-9.373513980084	11	-6.50998018986
11	-9.623359386581	-1.065371683303
9.204392252705	-8.264335040134	0
11	-8.75	0
11	-8.417487255696	-1.441524244981
10	10	0
10	10	-2.5
8.954208646248	11	-1.212187388043
11	9.523198680788	-1.115828158078
10	0	0
11	0	0
11	-1.25	0
11	-0.575379592621	-1.429520530143
11	0	-14.2043
11	2.750048726052	-9.500318484382
7.464567985486	0.051704139931	-7.835158067459
11	-1.47686794996	-10.09281414796
0	0	0
5	0	0
5	0	-2.5
3.251159637515	2.49970172174	0
-11	3.75	0
-10	5	0
-8.469270829822	2.9742777851	0
-11	3.835195987438	-1.225500135778
-10	0	-2.5
-9.538421716503	-1.859455360525	0
-8.753043453279	-2.333754178184	-2.281265590866
-8.338803398701	-0.195492269697	0
3.926950273557	8.429587983656	-5.434710690593
7.573013910667	4.192445991868	-5.478220440327
2.719327598846	6.976577021744	-9.799821050214
8.085323449398	7.437044290467	-8.350717684539
2.571059227139	9.147381449944	-2.616019466683
1.66892008996	9.671300202883	0
3.551520487731	11	-1.423834688183
1.777176051215	11	-1.701045424272
11	-9.822733550051	-2.499135432869
10	-10	-2.5
11	-11	-2.5
11	-11	-1.25
6.964944485764	-9.018768084093	-2.060588117181
9.158437334364	-7.427672813074	-1.837158939527
8.44985025903	-9.830260403807	0
-7.737478180165	-0.951312666993	-6.928375267817
-11	-3.6637968465	-5.776117842308
-9.161828177958	-0.92653104664	-4.344833718125
-11	-0.864283582608	-7.018625919073
6.573305384191	-11	-2.847240682639
4.812362618405	-8.949821680236	-4.451818358765
5	-10	-2.5
-5	0	-2.5
-5	0	0
0	0	-2.5
-2.5	2.5	0
5	-5	0
5	-5	-2.5
5.045154670843	-8.073481826115	0
3.067422670805	-7.261485866827	-2.119989769555
5	5	-2.5
6.670827432886	2.426402154651	0
0	5	-2.5
2.5	-2.5	0
0	-5	0
-2.06174787423	8.912216499171	-2.076458176898
-3.215520554776	11	-1.689667865568
-1.824902024377	11	-3.150289272683
-3.836816761646	11	-3.614146971252
11	3.645297524225	-3.9086550906
10	5	-2.5
8.857400916309	2.025743082884	-2.577151141411
9.224359971935	1.509639330139	0
11	3.223700057311	-1.758402794227
11	1.168924728731	-1.340539822899
11	2.5	0
11	3.75	0
9.252816092787	3.408134110708	0
3.75	11	0
5	10	0
3.580023334579	8.865035339898	0
-5.192459779503	2.380356925378	-4.448306288013
-5.375709899	2.58137177061	-9.139794904729
-3.180117208428	7.647000299019	-5.130398776234
0.195367191162	3.003700776566	-6.784332420172
-10	10	0
-10	10	-2.5
-9.17350825047	8.24691647455	0
-11	9.415661710766	-1.306022396122
-9.804087515704	11	-2.540338011008
-11	10.053818948484	-2.605145631405
-11	11	-2.5
11	1.596462377968	-3.313897908268
11	-0.42205666953	-4.548575156933
11	2.107925127162	-5.694793279626
5.195608695109	5.901670114641	-14.2043
-11	-9.856928559761	-2.604499489287
-9.981759101839	-11	-2.634423076023
-11	-11	-2.5
-11	-11	-3.9630375
-6.830933518139	-6.754306280461	-9.844573707464
-7.402898545215	-11	-9.915083277909
-11	-7.503660261283	-8.32423306598
-11	-7.727214750214	-11.447667213906
-11	11	-3.9630375
-3.521680698097	7.87761507569	-9.350580539679
10	-10	0
9.533411651734	-11	-1.116786764417
-11	-3.161512262017	-1.692693135011
-11	-2.5	0
-11	-1.41026118559	-1.389005571279
-11	6.51414603003	-6.608794195967
-8.079781982556	4.496796982665	-5.911701705462
-11	4.212594203093	-6.428751463506
-11	4.563072947317	-9.096493192419
0	-5	-2.5
-5	-5	0
-5	-5	-2.5
-2.440880110421	-8.505757280811	-2.199875110175
5	-11	0
5	-10	0
6.25	-11	0
4.965403438217	-11	-0.945607016317
-5	5	0
0	5	0
-4.199063678393	7.645780388229	0
-5.561440212393	3.770950076936	-14.2043
-5.365971599237	11	-11.817629255855
-11	2.113497921828	-7.031936496866
-9.696037350388	1.726165286055	-4.789040926745
-11	9.765787173007	-5.029810435647
-11	11	-5.426075
-9.710359344868	11	-5.022706116061
-8.344383380757	8.121248732261	-2.225859553268
-11	8.189402834507	-1.182182071491
-1.510656426281	-9.675296882625	-4.467340131673
-4.490587316639	-11	-4.043548102493
-2.090624418131	-11	-4.723122061696
-3.05007490687	-11	-2.891078197139
0.988915901624	-0.401466618618	-14.2043
-0.82814068751	6.235780627618	-14.2043
2.5	11	0
-2.956707428208	-1.478545055813	-4.809392828753
-11	5	0
-11	5.411776226705	-1.119695560088
10.001433074551	11	-2.650801744075
8.327882006409	11	-2.966846730407
9.632598129075	11	-4.176502818423
0	-11	-14.2043
-0.428903817072	-11	-9.35718865681
1.778916784274	-6.71141942223	-14.2043
-1.717158970851	-8.610142128508	-8.683576356256
6.986409950657	-9.158030842229	0
7.760388681671	-6.421406794769	0
-11	11	-1.25
9.024327747846	-2.64936234911	-2.888810606817
11	-2.797140391042	-4.017204451375
11	-1.233160583128	-2.853547564213
-10	5	-2.5
-9.682594184749	6.615058742277	0
-7.911632948864	5.232473785784	-2.549492949208
-5	5	-2.5
-5	10	-2.5
-8.613667033982	2.449038679589	-2.644399949175
-11	3.354170792335	-2.898019435113
9.815611359456	-11	-2.588153459961
-0.016802257773	-11	-0.952862191856
-1.421540591473	-9.731027764311	0
-1.25	-11	0
0	-10	0
11	8.094179597793	-1.671917541091
9.11721496716	6.9992241413	0
9.826573559214	8.45440283372	0
8.494940033555	8.337067490154	-1.865596625144
0.3314332294	-7.87495624483	-2.538811440469
1.423212720389	-9.253836053535	-5.173278576554
2.575675424487	-9.833268664735	-2.532569834587
7.712145096498	-0.843734481805	0
5	5	0
7.456401898297	-7.77027458807	-4.416216550647
7.819362958217	-4.714613726452	-5.613088135201
9.167311516026	-7.267591895112	-6.611404010072
-11	11	-8.35215
-11	11	-14.2043
-11	7.923126127364	-9.971337335921
-11	-4.892429560345	-2.556717429275
-10	-5	-2.5
-11	-5.139944125111	-4.234626010611
-11	-3.427001472548	-3.612904473086
-9.71894631552	1.336465978879	0
-8.415398943529	11	-3.259288026485
-6.869751424538	11	-3.008647079328
-11	-1.25	0
-10	0	0
-11	-3.750136807731	-9.573593886165
2.513769663555	-11	-5.008574896003
5.172615890062	-11	-5.945885437309
11	-5.111158125642	-2.34548900125
10	-5	-2.5
11	-5.405513575114	-1.100406418415
11	-3.925688653576	-1.200693900895
-11	8.402386010128	-2.779430588865
-11	1.786825363627	-1.62100477454
8.22639894513	-11	-3.397755047982
9.003668886274	-9.150761587873	-4.123429916277
2.5	-11	0
1.25	-11	0
2.105838944291	-8.520126080864	0
1.454577211373	-11	-1.375716584282
-7.873600528933	-3.702735814287	0
-2.981654873502	-3.664376330377	-8.988811998508
-2.5	11	0
-1.193303541258	11	-1.268316160856
-1.485941949916	8.847623000961	0
-2.5	-2.5	0
11	0.17537540225	-7.204377262234
11	9.79750100756	-2.564925793002
11	11	-2.5
11	11	-1.25
0.190795353659	-11	-6.396775396038
0.200178909028	-11	-4.021836418486
-11	7.5	0
-11	6.25	0
-11	6.78656808341	-1.667376450872
11	-4.669531826042	-9.056333973441
-4.731529405979	-8.555742486126	-5.616359966887
-6.468146223081	-11	-3.452236037536
-6.038456664673	-11	-4.981140940801
-5	-10	-2.5
-9.388274671054	9.40790996322	-4.692680636336
11	-7.5	0
11	-6.25	0
11	-6.705977010771	-1.656552756551
9.706968549966	-6.630372140216	0
-11	-7.5	0
-11	-6.25	0
-9.224939467167	-6.73554640456	0
-11	-6.132024429223	-1.268905143099
6.401985643569	-11	-1.358047288169
10	0	-2.5
11	0.069960272042	-2.670142961353
11	6.389096118413	-1.406811382112
-1.25	11	0
-5	-10	0
-2.924321518515	-8.52031813788	0
-5.25882659921	-7.98923563882	0
11	-2.270209457066	-6.717400117686
3.649267785122	-9.688608778627	0
0	11	-14.2043
3.272318149126	11	-3.180010719729
-2.405427984259	-11	-7.375834270167
-8.75	11	0
-9.534907098081	11	-1.114157579783
-8.429313872849	9.820334141943	0
-9.530563796767	6.875001896806	-4.93106961225
-11	6.453039752202	-3.874817552941
-9.879902587288	4.695122034377	-4.022755607991
11	-7.939261344074	-10.086337362643
11	-6.754721597518	-7.035954584988
11	-8.989910637097	-7.208301552213
0	11	0
0	10	0
0.393151005712	11	-1.143670672816
0.259582997361	9.242439935694	-3.694258363286
1.368683848361	7.842312241907	0
11	-4.562544742125	-5.904948733317
5	10	-2.5
5.011092358304	11	-2.410007551306
6.803726299237	11	-1.59567990723
6.478844059865	11	-3.396794241039
11	-8.409872904976	-5.201429642222
11	-4.779360220885	-3.835633530127
9.31581540367	-6.151361342438	-3.802968086739
8.262119507769	9.218730626904	0
-5	10	0
-4.617402887586	11	-1.131701353439
-6.214234539027	11	-1.254079199495
-10	11	0
9.612429889265	-11	-4.258862271921
11	-9.626665996311	-4.022071166777
1.220699174791	11	-8.065680653229
-0.058649594648	8.518189790613	-6.156280449557
4.98567685346	-11	-2.349858890743
3.596345435288	-11	-3.299745826092
5.156189874936	-11	-3.836398374364
-2.827157405684	11	-8.270857257804
-6.531553759463	-9.353051751782	0
0	10	-2.5
1.370843685119	11	-3.424861094038
-10	-10	-2.5
2.229833222496	11	-5.017866522219
-0.356902797281	11	-4.957706133615
-5	11	0
11	-11	-3.9630375
-11	5.5	-14.2043
-8.158670993193	11	-1.652285218895
-6.859585970652	9.092574753123	0
-11	-5.5	-14.2043
-6.249370276227	-2.182178128947	-14.2043
-11	2.5	0
-4.991402457457	11	-5.691849439348
0	-10	-2.5
-0.427009185463	-8.319987007082	0
-8.165378837044	-8.348997184491	-2.931726543623
-9.284925197363	-6.550954257661	-5.634376482206
-6.81874080749	-4.403860148035	-5.548659955279
-8.175887781393	-11	-4.902273818577
-8.238149491415	-8.883964929677	-7.082323330982
-11	3.061289959016	-4.722960385982
-2.988781061687	-6.180450155971	-14.2043
-3.419590360509	-11	-10.495759940342
4.262272895827	11	-10.087379739407
7.5	-11	0
-11	1.460184340246	-3.405749207813
-4.861300199347	-11	-8.128773288418
11	-3.759479822745	-2.688206375613
6.678353548244	-5.695694470177	-14.2043
-2.725601736431	11	-5.01758034325
11	-5.5	-14.2043
-11	-6.803980384254	-3.405376632242
-11	9.503577547189	-3.863653014223
-9.377054548459	11	-3.96457781054
0.055766060012	-11	-2.380105690451
-1.697499176172	-11	-1.578624930089
7.459335037605	-11	-9.241478486314
7.610587109325	-11	-6.132876920548
[...]
CELL_DATA 1559
SCALARS Resistivity(log10) double 1
LOOKUP_TABLE default
1.2696887693845 1.513152989236 1.9978254157669 1.8789899283841 2.0046920200626 1.1539266147324 2.1303566921418 2.1410540754168 2.1154723923922 1.398795797064 1.953122014654 1.9189369797772 1.9618525168946 1.6216097559032 1.9345280350167 2.0607293166787 2.0114349270568 2.1141715354974 2.0601221244503 1.9618273027819 1.957256090553 1.9605165969496 2.1172713990155 2.1478145278051 1.8331893003183 1.3621567955107 1.9988675998689 1.8902326362194 1.8726922987278 1.1055902637231 1.8129547464788 1.2839204465998 1.8665471087122 1.4133354404993 1.9300220135522 2.1214553254896 1.4898438817694 2.1050958173682 1.9764326048333 2.1727346548349 1.1574507300643 1.4706778056665 1.6790134736104 1.9787016568146 1.780096266837 0.93050785877097 1.8594201640101 1.6270340878608 2.1205887359291 1.7877598302954 1.1353062042281 2.1049359698688 1.9082977224153 1.8831480424658 2.072183032813 1.8700773957183 2.0118426526755 1.915372293988 2.0982213992903 1.9062245282762 1.975236760001 2.1252424327137 2.055255280346 1.5908065492198 1.3336481163725 1.9715771117014 2.1147510980217 1.8548687167948 2.0699780762316 1.2879940698416 1.7051212045634 1.8957462024666 2.0352065284186 1.5167165317315 1.9301079575501 1.9469024901039 2.1137006740791 1.8766315425559 2.072458428188 2.1396350624957 1.1900075468205 2.0679675117269 2.1046899039736 2.177804641503 1.9077380152311 1.3543967079615 1.8350558034586 1.6811838652576 2.0516063239127 1.2376765424718 1.7730896148288 1.6025122680541 2.0652457301589 2.0227534972483 1.906042027903 2.00067094237 1.9925033837001 2.0692537090348 2.0021342235449 2.1104550691335 1.831915307918 2.088152206529 1.891423426863 1.4348674750683 1.9296367187528 2.0461193183095 1.1105834766947 2.137680923054 1.8557798130423 2.1257432770267 1.9172977096478 1.5703587214226 1.9468540306924 1.8602809143066 1.4958391330375 1.8882117862361 2.0681093910967 1.494945609197 2.0478314685047 2.1203442722638 2.0138229507612 1.6782211117058 2.1538765639896 1.8502768101208 1.9069983629872 1.5832238995717 1.9415961553179 1.8711182429798 2.0082355329691 1.9686056258511 1.8310820457065 1.3901096665527 1.928249998808 1.2941382122064 1.9817685582283 2.0924718246676 1.9629280316162 1.8236337867293 1.5687061435963 1.9977865999445 1.8954057606338 1.2390187129173 2.0204578783528 1.9978874437667 1.1256569230007 2.1522530198119 1.6925706177698 2.0449862535488 2.070166813373 2.0552435068671 1.6113037959008 1.6755979535335 1.6775569731767 1.7002103175856 1.4230341596574 2.0953663135734 2.0721757627289 2.0431028744567 1.9466404826882 1.845635640721 1.1309869094972 1.8673705237835 1.2096793427465 1.9896277471303 1.8281293495965 1.2939385651837 2.0255426086473 0.98963595948686 1.5787685449714 1.4746336533226 1.2399792312786 2.112502666445 1.9741411153405 1.9910004837074 1.9154262911637 1.8201481050202 2.0386421666 0.85810987880193 1.5606110851034 1.5414477047248 2.0136791082052 1.6662584554168 1.9191293040832 1.6834095037072 2.0310247474133 2.0840548434018 1.7343631836946 1.7211904371463 1.7082291260005 1.9881412058301 2.1070806678687 1.9980682408752 2.0415547084949 1.2736678404325 2.1590428632715 2.0847157122843 2.0990439020549 1.6961903997986 1.8244772221917 1.8371403809834 2.1309792964177 2.1463169606353 1.7272873191232 1.9428313089934 1.8000990475458 2.1005805375001 1.8133735613431 1.929246427327 1.8486441661003 1.8730427257103 1.8639110684863 1.6993185172722 1.8081994707583 1.8322228629394 1.6719915065779 1.9279181844632 1.9708654586907 2.1336987574091 1.9015706625036 1.0919261404822 1.9434717618652 2.0242738528801 2.1085713398749 1.9825775147337 1.8020865775306 1.8976766577809 2.030606950257 1.420457604878 1.3723123443291 2.1853863255923 1.3978369669844 1.6156342226203 1.4125819780237 2.0392344349822 2.0846534266283 0.99684914283211 2.1359752184683 2.0635736375427 1.1893756750628 2.0451269407401 2.1390042684339 1.4275791540959 2.0707691193414 2.165952065259 1.2875184333807 1.7189284275105 1.1138712587469 2.0724972907781 1.9798447168596 1.766329460927 2.0305362694448 2.0525706289378 2.1395915784123 1.6954998424115 2.1126493083789 2.0069610812609 1.2957001904877 1.9053346342828 1.8724798502911 1.8372263472492 2.0842922012068 1.9317135071437 1.9516338847982 2.098604397346 1.8537050733232 1.6474710851083 1.7623216037121 1.9847278248509 1.9799791580362 2.1509597860015 2.07845084665 2.000056007706 2.1933954772258 1.9939806722632 1.9321625110828 1.9422045959324 2.1261763438445 1.3328808852797 1.6684228418699 1.9290345542955 1.6290222944203 2.1238724972689 1.0559755817856 1.6157299182826 1.9088241967973 1.0281986692298 1.8130689281164 2.0741766937632 1.8201666975813 2.0747760074006 1.1350251707153 1.8194832288232 1.6033052607789 1.9380506112878 1.419468303107 1.9378169773926 1.402949904378 1.7905293538055 2.0194227263883 2.1220864490859 2.1513044836436 1.9254851603635 2.1082742597786 2.0817228631148 1.4230360194071 1.7468709304968 1.7615885674595 2.059837066347 1.9742368485111 2.1054768520916 1.9085386944755 2.111283659453 1.9813422219982 1.9636676702055 1.5641763391079 1.1289266618009 1.8784417232729 1.8419334205549 1.9738052949757 1.0698469023624 1.8957921633121 2.086556379426 2.0592141127113 1.9733654690234 1.7989471156193 1.7748063206188 1.7709597069942 2.0594694854244 2.0160742728767 1.8811929210387 1.9890077892273 1.347228266588 1.6109605661936 2.098350426487 1.9370130583336 1.9469136375978 1.9595200356211 1.8618761636416 1.4711789221113 1.8923348998867 2.0086310784578 2.0004119541626 1.2129147315172 1.98423868301 1.9966866170307 1.6016930235779 1.9385880274398 1.9355217412711 2.1778250033948 2.1080534832932 1.8377419550414 1.6500069909998 1.5863279029171 1.9546565792447 1.6100723100505 2.1322444644637 1.8674432385505 2.0291889309282 1.8562161134583 1.9568240510581 2.1587361683945 2.0221569698933 1.4635537315197 1.9682730292652 1.8118843378827 1.8200653057089 1.9544127610996 1.8447392955322 1.9423350471811 2.1708754718863 2.0808365380424 1.8189945740919 2.0022171608584 2.1341214614729 2.0973263309457 2.0644188255283 2.1310660791043 1.5454951348971 1.93755817878 2.0970770231333 1.9293458170635 1.8979018769639 1.8113323650633 1.4689579483597 2.1424361184845 2.0831423173488 2.0810621866729 2.1233198974994 2.1073172592419 2.1186265938811 1.3131499671154 1.8114073753633 1.9649522998159 1.1871868128528 2.0628750062035 1.9483707256458 2.073401465208 1.9895433578922 1.3739873100638 2.120318368938 1.8753258810459 1.7748580075003 2.1043262230095 2.0908061066454 1.023619170872 0.92012734474463 1.9150021747146 1.4924429479972 2.0430161377133 1.3962517246949 1.948607480551 1.5539283921365 1.8700300925666 2.0182088032518 1.599160781593 1.2641959566646 2.0719110284801 2.0426993050805 1.5959296768461 1.9546182588736 2.0131414754461 1.91863073869 2.1029728966426 1.8535472015997 1.8934331662006 2.0705101936787 2.0355418709699 1.9252784674827 2.0720430888616 1.9416768589688 1.6781486861801 2.0420842653322 0.90467632171449 2.1090904172136 1.6633844622346 1.6685425491108 1.3223263457296 1.5440127620715 1.9454868417958 1.8876438864528 1.6478719119222 1.6150659656254 2.1135649189188 1.6908718788623 2.1330731219434 1.8775596402764 1.657211559171 2.0062375711151 1.9729968138627 1.8439890024135 1.9327123132141 2.0012564066592 1.9634620203538 1.9606158210986 1.6536080399899 1.9924118053347 1.0860943720592 1.4793164999448 1.5863314935539 2.0440883570908 1.07279660924 1.4537015871006 1.7902575924059 1.9872205030321 1.0861264687484 2.0832630307482 1.770806946249 1.4744090703533 2.1359201670552 2.0124401490234 2.0065528217549 2.0503396613051 1.4639761153399 1.8483068377657 1.0061788956025 2.0485929740095 2.0671428177547 2.0656599294001 1.7403863310039 1.9890780207133 2.0914203299258 1.8990005139317 1.7470626382204 1.845311816525 2.0792323677783 2.0541653075249 0.90356139384351 1.9749747552327 2.0140305675068 2.0620878481725 1.8660833331416 1.8639117969172 1.9501704525526 1.9467765011644 1.7502443869951 2.0839208029307 1.9385812970963 0.88729724341471 1.580034943937 2.002007917515 2.0085823685738 1.8651071561719 1.9585193657751 1.5374166899884 2.1097924070948 1.9847147223338 1.8652141807264 1.7682261006067 2.1598154019514 1.9078556722415 1.9019156602655 1.3986907243037 1.0047270283941 1.8501126559577 2.1313920130939 2.1290036966686 1.539449621016 2.1114874571516 2.0377262495105 1.8850285925494 1.9724568278152 2.1337483070934 1.9689353239256 1.9671995449655 2.1113335126783 2.1220840011672 1.8839688191008 2.0217927826362 2.037466357618 1.9215738962834 2.0458034462076 1.3343896864935 1.9088014464208 1.6387433436841 1.9000292983236 2.050628005629 1.8169727823171 1.3433182536522 2.1217541958872 1.841202674572 1.8121337429605 1.6956964086886 1.1851387297063 1.6589506253098 1.866308261701 1.9796749653413 2.1154478389946 1.4959881190946 1.9910696206493 2.0892028160317 1.9852163268022 2.1505956478699 1.4909705959632 1.7088857758251 1.7769616878049 1.7776519500664 1.6789870820723 2.0286590291518 1.4685631917414 2.1611096277835 2.0369421875357 2.0594886297985 2.0441842818632 2.0750803041183 2.0359781952403 1.8721715261447 1.6721727622552 1.9622628269874 1.4043737584273 1.9739643745531 1.9743832793876 1.8880190925397 1.5285554681529 1.8711247120847 1.8795423617809 1.7115729773926 2.131565861852 2.034414443079 1.7925434376538 2.042537108618 1.8929105914591 1.9622529047124 1.8391584504599 1.9593108988509 1.8144116586251 1.8273191221516 1.0654706967765 1.8398203741538 1.8529598888957 1.8274194375685 2.0292013873622 2.0986993905192 1.8648301010343 1.4408128471481 1.8517388966839 1.9177126142163 1.9526681825072 1.7057676990149 1.1873977135919 1.9658295298024 1.7093234856398 1.8900032703762 2.0916920679169 2.0932314278939 1.5217795682159 2.0733047059405 2.0568371504786 1.9992281318796 1.1619704324984 2.1162482288402 2.1452303052085 1.856429760729 2.1672276717611 1.4699925409364 2.0157570400632 1.817262769103 1.7990060302923 2.0633897055375 2.1462424985443 0.99503664518921 1.5677813549772 1.9344427705787 1.9494872567186 0.93549594911519 2.0443350748461 1.9030192347762 1.354612151707 1.1557036258368 1.5243742678577 1.7850655738128 1.9710934067591 1.9754237384908 1.5158141585193 1.3465788535663 2.1394250230734 1.707427699578 1.6671876015418 1.9652677264999 2.0209280760068 2.0250417342731 2.0674905503675 1.998735798759 2.1385202091036 1.1263406911199 1.7342436620857 1.9486021970621 2.0750324083818 1.6894609439906 1.6875776607715 1.3151401640571 1.5856488362905 1.9999532796982 2.091296963498 1.3178506099285 1.9230361376281 1.9718835836687 2.0987782176209 1.6470609480529 1.6578269494793 1.221942574055 2.1490554818958 2.0558255019364 2.0853430066725 2.0966351853542 2.1680370359338 1.7862875800053 2.0945442436729 2.0548033184718 1.7325451992085 2.0444992317374 1.8563863172898 1.2291925121584 1.0304218216386 1.8658091923426 1.9684584278892 2.0069657219157 1.7976305022083 1.957751469867 2.0094714314175 1.4805866555325 1.4219550074585 2.0085946885037 1.7225599256411 1.734086606911 1.9535196980612 1.9656242109547 1.9616002445032 1.5299213256226 1.5585366172137 2.0005245734679 1.7690304089481 1.9574201635477 1.637153820611 1.8127201588686 1.5625818002734 1.2101667821938 1.6843583410429 2.0296907973303 1.9419972550366 2.0851160479984 1.8757595371487 1.9284988524946 1.9522198020061 2.0612973554967 2.0109500915165 1.9494172079409 2.0989047880912 1.6195552771706 1.8699199921186 1.9829349154031 1.9599530190866 1.9221104503464 1.998452665125 2.0528969673286 1.8706533806145 2.0888895207184 1.9924790195751 1.9743085876544 1.9534218033655 1.8991981039873 1.5199965800988 1.8020448524985 1.0787370273289 1.3140747157438 1.9649127924915 1.7310353261877 2.0188068608922 1.9149804001993 2.1521190423976 2.0876008369147 2.0641944346867 2.0626084442876 2.0720862120912 2.0900423518619 2.0432462166045 1.8864041729008 1.8409737564087 1.7969556457236 1.5673347244448 1.4245883613437 1.6242897059907 1.9129307015166 2.0394506916024 1.2624896675748 1.5925141172979 1.3902087638687 1.96081254389 1.7579010732637 1.6162932591173 1.7552477909242 1.8661444947617 1.8989560154368 2.1077216938075 1.4239779210346 2.0033437036747 2.0604880351913 1.1121380434822 2.0644997571815 1.8848233689095 1.8916911094475 1.9079786636558 1.7275114079237 1.7816162866638 2.0662747824042 1.6596144369967 1.9393982503901 1.963159584963 2.0820023597042 1.8646457395271 1.8820614214481 2.1390630209493 1.8477366852515 1.9049943182321 2.1185865805354 1.8779769654114 2.0026375689275 1.8507201635587 1.7818268338731 1.6173964864245 1.9431104059453 1.4043578733005 1.893110141824 1.244821050495 2.0918721248102 1.6515825611496 2.0364777425388 2.0318572716144 2.0839154619367 1.9205877828284 2.1580397069129 2.1527128612498 1.901051283328 1.9016157688074 1.881834480012 1.8904816346361 1.7321835495761 1.5358451275918 1.0939133283272 2.0106435440524 1.9241080347885 2.0731148482684 1.5121057703692 1.9708630950704 2.0812163699328 1.5781987728983 1.1807222590362 2.1408692348784 1.5775769863459 1.2863590386603 2.0551313305959 2.1531438859317 1.625283603443 1.8182470065236 1.8456260205692 2.1702378126587 2.0442252253438 2.1057059830613 2.1324917764488 1.7431289238262 1.9130233877664 1.6282482286803 2.0506297089559 1.9571594083675 1.9872706462038 1.4971024830672 1.5755421869707 1.8304959898123 1.5778629610638 1.7346815113761 1.967647495427 1.9321172861769 1.9724832666588 2.0224709913918 1.7564504976338 1.9247764309355 1.1975468030726 1.6558897269333 2.0377577035923 2.0888494979395 2.1820809570617 1.9989610945746 1.828095280785 1.9334431543719 1.8538461506934 1.3652498322623 1.9227210185524 1.5826074518828 2.1108601577784 2.1254256065169 1.8194547182193 2.0097787378991 1.9393062276499 1.958815456081 2.1276366288437 2.014251082189 1.735867388005 2.0905323616385 1.9793445327191 2.0093317113924 1.4162456734675 1.9854809476739 1.979830091507 2.1083932325776 1.9836748056956 1.7949470616826 1.4848472292601 2.0409910711156 1.8724056948707 1.7425320247162 1.6776895268128 1.613857099275 2.1400132337431 1.8666688524156 1.4608515087345 1.2759247322972 1.8796795278094 1.1905926756475 2.0927192169857 2.1163892653064 1.917748084068 2.0005312700736 1.534755365776 1.8982378346768 1.4764325408178 2.0990354078153 1.6869613858838 1.7836639351443 1.80914750837 1.7794015079861 1.1254051217252 1.1672103292088 1.7438435197706 1.0630870829979 1.07819846672 0.87529415565194 1.1439575404717 1.9478717361821 1.8875077132613 1.9639627728101 1.9276060069844 1.9327957134299 1.908421015171 1.8771566424857 1.9101510683143 1.8030199509572 1.5928643668124 1.7398670705291 1.6887753340332 1.9737728530731 2.0537153314422 2.0213755780489 1.9386852705365 1.9179541170795 1.9624308778185 1.4282368860588 1.7854384262083 1.6056053956617 1.7021033547212 1.0827509958351 2.0360411866724 2.0039565360802 1.8466462915782 2.0617105041974 1.988926073879 2.0137897155576 1.5461795909094 1.6689566018719 1.9515714572924 2.0456051251349 2.0452112745875 2.0081391060887 1.9970099003645 1.9829600372624 1.8992578178621 1.8519599148814 1.8693760767072 1.9227647277659 1.9071416385202 1.177008599961 1.7341254131169 1.777943975059 1.72353742208 0.96257297551216 1.8491992205071 1.9995040134761 1.8345746574841 2.0114095863989 2.0496422847622 1.9633500985624 2.0139235640106 2.0194495274222 2.1382503496842 1.3417148696545 2.2031752393406 1.6337035583874 1.9468089817104 1.923341586911 1.8989953020486 2.129986843961 1.9702248902802 1.9431142268125 2.0110194900892 2.0713858568953 2.1547815679389 1.3923470012374 1.2804965017928 1.7640846628744 1.4866417525585 1.7084372974457 2.0911132933101 2.1162012812563 2.0141757923362 1.9807426968018 2.083254528405 1.8996713150223 1.7963913579313 1.4671725963589 1.8599756942925 1.9419895153045 1.8543287818855 1.8454842846396 1.8505948035219 1.8826043562029 1.9201916198688 1.9450892871871 1.577289495405 1.8262011982136 1.6407169213321 1.8245520086931 1.8639703714966 1.8474416973876 2.0342514764929 2.0351076311132 1.8855738268488 1.8486386444907 1.5667396227784 1.6597455601776 1.7841916483523 1.6426307820552 2.0897359266197 1.6482417423358 2.0239736165476 2.0768207099301 1.0919452158616 1.8816623296796 1.8187386486231 1.8393002879514 1.7861731885178 1.6689607445392 2.0427143782157 1.6689776567403 1.8972471437627 1.8423785540422 1.7846874385825 1.6803976376771 1.6972832378733 1.8946812912225 1.8243504948181 1.834310858236 1.9098923897309 1.8853921102618 1.771322132632 1.7309584227592 1.955305619596 1.8129118417394 1.959367494939 1.6222010456297 1.3740595856219 1.9501342594365 1.9542174897405 1.8762068199342 1.8982565290461 1.0263627772569 2.1424480631505 1.9226670076925 2.0834567670422 1.3825071464774 2.0679597529755 2.0507918880127 1.7595193738576 2.0677206550469 1.7681368044741 1.2795992265228 1.970283745354 1.8077628434817 1.723172470409 1.9684734848301 1.2406000892133 1.1017112583651 1.1563822113025 1.1500042009573 0.92694002882128 0.92976283857697 1.4131675273355 1.2555382627785 1.664735332723 1.043038090464 1.2337992684679 2.1467944787627 2.1643173151344 2.1432907423833 2.0658328812023 1.358703865917 1.891540505976 2.002939976798 2.0550486518928 1.8536719774126 2.07884843319 1.5967459172158 1.9571416497065 1.8632143195949 2.0181818472731 1.8626229934076 1.1583318966283 2.0182766655782 1.1957170134667 2.0910901090936 1.2538509820988 1.9375316200336 1.907958798998 1.9941018217445 1.9944975839137 2.0964522808491 2.0653986365231 2.0218823916858 2.0877223383522 2.0527872828409 2.0068830272278 2.0194267546954 2.0331809093213 1.9074966300305 1.8439366164646 1.8829679735284 1.8255441188642 1.8766762295682 1.8067106421114 1.1783715368262 2.1517530621384 1.4334525726151 1.7835683760067 1.9265248353034 1.816471058639 1.767187309558 1.8779640135211 1.5754415840323 2.0667684807462 1.5629054178999 1.7357182412524 1.7796043767711 1.6409333152604 1.3184141037486 1.2958305823675 1.5884991202693 1.9765977682619 1.9301692584714 1.8981140959266 2.0288181170093 2.0874853712942 2.1004730135167 1.7963119597595 1.8549004441326 1.8861065095443 1.8736718075112 0.89836286059766 1.9151108565314 1.1514430125585 1.7851183927891 2.0145895358109 1.9766578661278 2.0453294426632 1.9651059681933 2.1364617313723 1.836184910391 1.7061712136442 1.4021906019682 1.5850229424492 2.0931687760994 1.9890161748497 1.9744464856874 2.0324738125058 2.0562521325758 2.066524389048 1.9888019312741 1.9739994494965 1.9106104818969 1.9572838023912 1.911897541767 1.9465104769551 1.893959476061 2.1031713830422 2.0696489007005 2.1043575484232 2.0764332741529 2.0804711386705 2.1139412785619 1.9629235937538 2.1413213972069 2.0770942303985 1.8814481570809 1.9491301409045 1.9985608344824 1.6194818635218 1.6685919472998 1.948631083016 1.115523845405 1.7878125267053 2.1640724848289 1.9082527205973 1.7560642017434 2.1915156884616 1.8613394484085 1.8785511071226 1.687743847433 1.8960834315611 1.0660528013245 1.7885067164391 1.9788950259445 1.9896313578196 2.0253758167063 1.5418765508212 1.6082115208338 1.7183971758031 1.9948327901028 1.8878070670164 1.9665479973097 2.0508739815838 2.0774767625333 1.7815766366298 1.9567042220333 1.6948054033056 1.9383757689421 1.8318124497359 1.2142664747805 1.9790141833365 1.9543172368095 1.167598067175 1.2412218361632 1.6712198322676 1.4565882560814 1.7609510911733 2.0029797088528 1.963553780777 2.0344119619476 1.9302959886712 1.2979969168272 1.3289602662162 1.2587143823519 1.7971287915747 1.9397387348654 1.6810883487525 1.7884248428318 1.9859770791733 2.0374645859749 0.91596254824365 0.92700038343764 1.0270414263634 2.0732939443377 2.1160776197426 2.0767143785936 2.1198694119144 1.541377718757 1.5414135109355 1.7425694641111 1.7323167614171 1.6380934124994 1.7107838791931 1.6915312846715 1.6227854718947 1.8573584067963 1.4817371820699 1.9415179166243 1.329063763582 1.0942218958015 1.8306109693801 1.1694506351327 1.8683440600261 1.9370912385359 1.8990124651814 2.1009532909755 1.9656050472627 1.3712872511521 1.0878814536785 1.8177458574068 1.9373661595603 1.9045083510436 1.141858909437 1.1326768110677 1.1100396023079 1.9240683643382 1.8867566487314 1.894541696612 1.894884087989 1.8594234294897 1.5