# vtk DataFile Version 3.0
d-3__ created by libgimli-v1.1.0
ASCII
DATASET UNSTRUCTURED_GRID
POINTS 8143 double
-110	-110	0
110	-110	0
110	-110	-154
-110	-110	-154
-110	110	0
110	110	0
110	110	-154
-110	110	-154
-11	-11	-14.2043
11	-11	-14.2043
11	-11	0
-11	-11	0
-11	11	-14.2043
11	11	-14.2043
11	11	0
-11	11	0
-10	-10	0
-5	-10	0
0	-10	0
5	-10	0
10	-10	0
-10	-5	0
-5	-5	0
0	-5	0
5	-5	0
10	-5	0
-10	0	0
-5	0	0
0	0	0
5	0	0
10	0	0
-10	5	0
-5	5	0
0	5	0
5	5	0
10	5	0
-10	10	0
-5	10	0
0	10	0
5	10	0
10	10	0
-10	-10	-2.5
-5	-10	-2.5
0	-10	-2.5
5	-10	-2.5
10	-10	-2.5
-10	-5	-2.5
-5	-5	-2.5
0	-5	-2.5
5	-5	-2.5
10	-5	-2.5
-10	0	-2.5
-5	0	-2.5
0	0	-2.5
5	0	-2.5
10	0	-2.5
-10	5	-2.5
-5	5	-2.5
0	5	-2.5
5	5	-2.5
10	5	-2.5
-10	10	-2.5
-5	10	-2.5
0	10	-2.5
5	10	-2.5
10	10	-2.5
-11	-11	-2.5
11	-110	0
11	-11	-2.5
11	11	-2.5
11	0	0
11	5	0
11	10	0
11	-5	0
11	-10	0
110	0	0
-11	11	-2.5
0	11	0
-5	11	0
-10	11	0
5	11	0
10	11	0
0	110	0
-11	0	0
-11	-5	0
-11	-10	0
-11	5	0
-11	10	0
-110	0	0
0	-11	0
5	-11	0
10	-11	0
-5	-11	0
-10	-11	0
-5.004869331643	-11	-2.430461480318
-9.981759101839	-11	-2.634423076023
0.055766060012	-11	-2.380105690451
4.98567685346	-11	-2.349858890743
9.815611359456	-11	-2.588153459961
-11	0.026120460095	-2.38925362178
-11	-4.892429560345	-2.556717429275
-11	-9.856928559761	-2.604499489287
-11	5.108956209955	-2.461737708954
-11	10.053818948484	-2.605145631405
0.040008046842	11	-2.591207638538
-5.032791656587	11	-2.48581492163
-9.804087515704	11	-2.540338011008
5.011092358304	11	-2.410007551306
10.001433074551	11	-2.650801744075
11	-5.111158125642	-2.34548900125
11	-9.822733550051	-2.499135432869
11	0.069960272042	-2.670142961353
11	4.977178311061	-2.530976649591
11	9.79750100756	-2.564925793002
0.988915901624	-0.401466618618	-14.2043
-2.159050547755	-5.16140178987	-154
68.290989157991	14.359586118424	0
-9.182173006089	67.463247695936	0
-71.81993602827	-15.695958558801	0
-16.120089815245	-64.782043457004	0
39.792209118312	9.392954190754	0
-10.688048776516	34.042259868686	0
-35.528990163277	-6.436197970563	0
-11.329445504895	-38.891936416521	0
9.594098588797	-31.615394188836	0
31.291343480785	-10.214886155574	0
13.498991634332	32.340623444803	0
-33.298155182833	8.231647490086	0
-9.988104228613	-24.644606150173	0
25.594027560808	9.47071912386	0
-11.574064700703	23.876536546112	0
-25.516116293115	-10.4347516955	0
9.974636121496	-22.399717943307	0
21.301931249111	-11.132922167665	0
11.542232131133	22.253767624217	0
-20.612462756339	10.032848501555	0
-10.442495124273	-17.357061931205	0
-11	-11	-8.35215
-11	11	-8.35215
11	11	-8.35215
11	-11	-8.35215
18.45526624081	10.053779040177	0
-11.450410714187	17.504956668898	0
-18.056747743266	-11.558414544602	0
10.562248430463	-16.847843377576	0
16.493290227001	-8.897022196218	0
10.074378812243	16.178439590307	0
-16.395393235674	9.493474973245	0
-9.844362215792	-14.223497495676	0
14.256317601269	10.68878789189	0
-9.847070111757	14.163016086428	0
-14.428801663949	-10.049323956157	0
-11	-11	-5.426075
-11	11	-5.426075
11	11	-5.426075
11	-11	-5.426075
10.604222395346	-13.808517484237	0
13.962892094728	-10.89452436068	0
10.809652302626	13.326409634244	0
-14.044625691881	10.896647674895	0
-2.5	11	0
-1.200199292922	20.539981532775	0
-11	-2.5	0
-20.207792895781	-0.281362609513	0
11	7.5	0
-11	-7.5	0
2.5	-11	0
1.132522473685	-20.714998784682	0
-11	2.5	0
-7.5	11	0
7.5	-11	0
11	2.5	0
21.122166656812	-0.837588778138	0
11	-2.5	0
-2.5	-11	0
11	-7.5	0
2.5	11	0
7.5	11	0
-11	7.5	0
-7.5	-11	0
-17.829422495505	5.063273181277	0
16.689268098339	-3.934674179286	0
-3.157798389008	-17.572868242455	0
3.54174345654	17.567501180149	0
-3.978994075051	16.770864456661	0
-16.003439999473	-3.33037401416	0
16.310679461604	3.257563855227	0
110	-55	0
3.835907662275	-16.964523197703	0
-11	0	-14.2043
0	-11	-14.2043
0	11	-14.2043
11	0	-14.2043
16.185750396761	-13.955890769136	0
27.383140180511	-26.873561771165	0
60.5	-110	0
0	-110	-154
44.43048007763	55.903640855588	0
-49.648072157842	45.549642378939	0
-15.770972045691	-17.935284911803	0
-34.681186154685	-27.632129834249	0
-10.183524776526	-12.24080533478	0
16.436174748861	16.975603279729	0
29.321611256853	28.822707213825	0
-15.466658168443	15.536649053891	0
-27.934119810994	34.49842686519	0
110	-110	-77
33.645199531704	-77.807996016311	0
12.057549311577	10.194455422806	0
13.238230104368	13.583910787663	0
-10.520916884661	12.32990493408	0
-12.627948370196	13.110267259881	0
-12.255236452764	-10.187148830323	0
-12.804352946852	-13.022453067701	0
-6.661765450296	-11	-6.823851957294
-11	6.51414603003	-6.608794195967
6.565167438162	11	-7.255969963766
11	-6.754721597518	-7.035954584988
-110	-55	0
-110	0	-154
-11	-11	-3.9630375
-8.175887781393	-11	-4.902273818577
-11	11	-3.9630375
-11	8.303172927535	-4.84573053263
11	11	-3.9630375
7.93900666287	11	-4.950830994945
11	-11	-3.9630375
11	-8.409872904976	-5.201429642222
-11	-8.131126991718	-4.706194924091
-11	-3.750136807731	-9.573593886165
-7.756638251737	11	-5.001860580685
-2.827157405684	11	-8.270857257804
11	8.610850924026	-5.12999296891
11	2.750048726052	-9.500318484382
8.274784049613	-11	-4.730999700288
2.952496453214	-11	-9.071616679161
-8.293850949485	-12.861248921928	0
110	0	-154
50.413377189272	-110	-84.355232993336
-110	-21.760912230653	-80.819637892959
110	-12.230016483855	-87.356792749181
-14.544118276929	6.711659909039	0
-14.980374943623	0.976551424846	0
14.342137994128	-6.451683859204	0
14.440956862088	-1.748976885903	0
-1.722305234517	-14.284544939635	0
6.428698522476	14.495359590139	0
1.597444231963	14.536153997404	0
10.623543395247	-12.124147239515	0
12.50111981348	-12.535161383536	0
12.088973610115	-10.299979625587	0
13.000576595883	-8.512449710794	0
10.211841122704	11.909516255949	0
8.643170410876	12.916406410379	0
-12.131684460771	10.401108730644	0
-13.039881151038	8.601329268764	0
-11	-11	-1.25
11	-11	-1.25
-11	11	-1.25
11	11	-1.25
-3.75	11	0
-2.854292412877	13.998420980271	0
-3.215520554776	11	-1.689667865568
-1.25	11	0
-0.546410505567	13.047293447236	0
-1.485941949916	8.847623000961	0
-11	-3.75	0
-13.453433107488	-3.346308547866	0
-11	-3.161512262017	-1.692693135011
-11	-1.25	0
-12.999445497759	-1.208049602606	0
-9.538421716503	-1.859455360525	0
11	6.25	0
13.951283126251	5.246071369635	0
9.11721496716	6.9992241413	0
12.733553368796	6.71684500169	0
15.515777346765	7.316554589463	0
11	8.75	0
11	8.094179597793	-1.671917541091
-11	-8.75	0
-12.993233616737	-7.99419337077	0
-11	-8.158323382517	-1.695854082106
-11	-6.25	0
-13.806596096988	-5.476397707617	0
-9.224939467167	-6.73554640456	0
1.25	-11	0
0.629634305337	-12.997621522854	0
2.105838944291	-8.520126080864	0
3.75	-11	0
2.92870964454	-14.032903238083	0
3.269020091904	-11	-1.604159757378
-11	1.25	0
-11	1.786825363627	-1.62100477454
-12.300087905864	2.197028041859	0
-11	3.75	0
-13.37760711593	4.25829183381	0
-8.469270829822	2.9742777851	0
-8.75	11	0
-7.758389901923	13.64476396999	0
-8.158670993193	11	-1.652285218895
-6.25	11	0
-5.442170988874	13.673054472029	0
-6.859585970652	9.092574753123	0
6.25	-11	0
5.550496612934	-14.289164246934	0
6.986409950657	-9.158030842229	0
8.75	-11	0
8.239826894213	-14.233862986506	0
8.120568275833	-11	-1.646931372793
11	1.25	0
13.345647512182	0.84468614679	0
9.224359971935	1.509639330139	0
11	3.75	0
13.161733552908	3.401676906767	0
11	3.223700057311	-1.758402794227
11	-3.75	0
13.17630357729	-4.160954854966	0
8.845249448613	-3.521693876247	0
11	-1.25	0
11	-2.259573951156	-1.764045849067
12.192327312777	-1.793200270469	0
-3.75	-11	0
-4.338079107082	-14.118640464877	0
-2.924321518515	-8.52031813788	0
-3.03609363717	-12.498500339672	0
-1.25	-11	0
-1.697499176172	-11	-1.578624930089
11	-8.75	0
9.204392252705	-8.264335040134	0
11	-6.25	0
11	-6.705977010771	-1.656552756551
1.25	11	0
1.777176051215	11	-1.701045424272
1.780490754982	12.209398521191	0
3.75	11	0
3.799901813211	13.625444074413	0
3.580023334579	8.865035339898	0
6.25	11	0
6.803726299237	11	-1.59567990723
8.75	11	0
8.262119507769	9.218730626904	0
-11	6.25	0
-11	6.78656808341	-1.667376450872
-11	8.75	0
-9.17350825047	8.24691647455	0
-8.75	-11	0
-8.353870953437	-9.072910785961	0
-6.25	-11	0
-6.83804450071	-11	-1.630875262073
25.85601321154	-52.242967052591	0
71.753781232154	-46.277600369654	0
51.581109813505	-28.380984273462	0
7.271738251117	-17.2938848647	0
12.277830994967	-6.373355974584	0
6.837274546725	12.342826366512	0
-12.317958443518	6.408927443897	0
77.096935733566	-19.878435128264	0
-4.617402887586	11	-1.131701353439
-12.860683589163	-7.109807300008	-3.070667556049
-1.184794253157	-27.965981697622	-11.515559748261
-8.344383380757	8.121248732261	-2.225859553268
-2.458678854304	12.097808367315	0
-4.771680215453	-12.107744835941	0
11	-0.575379592621	-1.429520530143
-5.391708376511	-11	-1.108301907398
11	-5.405513575114	-1.100406418415
-14.975942816545	10.883121934803	-3.010900634119
11	-6.375390656627	-4.710013492459
11	-2.270209457066	-6.717400117686
8.327882006409	11	-2.966846730407
18.513469228623	7.580059998328	-6.408688311273
-8.165378837044	-8.348997184491	-2.931726543623
-2.5	2.5	0
-6.869751424538	11	-3.008647079328
-4.991402457457	11	-5.691849439348
14.301715447375	-8.640274895882	-3.364334595494
-0.12661110173	-17.658483329175	-6.065273622299
-13.305834288584	-17.735327663095	-4.220708677729
-11	-1.41026118559	-1.389005571279
-11	-1.596368890467	-4.629781464245
-11	2.113497921828	-7.031936496866
-11	-4.558023840189	-1.126709997164
11	-3.925688653576	-1.200693900895
11	-2.797140391042	-4.017204451375
-25.134213154281	20.143368842372	-13.531312892032
0	110	-154
-11	-7.503660261283	-8.32423306598
-11	-5.5	-14.2043
14.831457432602	-12.611103709204	-3.600496489853
-11	3.835195987438	-1.225500135778
-11	3.061289959016	-4.722960385982
-12.023428868645	17.627772208965	-7.183986349318
1.220699174791	11	-8.065680653229
2.229833222496	11	-5.017866522219
6.401985643569	-11	-1.358047288169
15.363516747224	12.554112113917	-4.07612737278
-2.007062468514	16.858846387773	-4.094449545546
1.370843685119	11	-3.424861094038
-0.356902797281	11	-4.957706133615
3.272318149126	11	-3.180010719729
[...]
CELL_DATA 43416
SCALARS _Attribute double 1
LOOKUP_TABLE default
17.539457533973 17.539457533973 17.539457533973 17.539457533973 17.539457533973 17.539457533973 17.539457533973 17.539457533973 49.944971127818 38.071429623746 34.563245025381 35.993525128275 35.483638078443 35.483638078443 51.325517295845 40.123193871018 34.014580690824 34.014580690824 34.014580690824 34.014580690824 34.014580690824 34.014580690824 34.014580690824 34.014580690824 32.867348407621 32.867348407621 32.867348407621 32.867348407621 32.867348407621 32.867348407621 32.867348407621 32.867348407621 17.644213048593 17.644213048593 16.873619239596 17.424330448164 16.057379177631 16.022865842832 16.057809144565 15.988743767796 114.11377289181 114.11377289181 114.11377289181 114.11377289181 114.11377289181 114.11377289181 114.11377289181 114.11377289181 65.811805465104 65.811805465104 65.811805465104 65.811805465104 65.811805465104 65.811805465104 65.811805465104 65.811805465104 58.964427161313 58.146158529895 57.132475624984 57.132475624984 57.132475624984 56.296130724831 55.70381541885 56.296130724831 50.149193383297 50.149193383297 50.149193383297 50.149193383297 50.149193383297 50.149193383297 50.149193383297 50.149193383297 85.185910867123 85.027186665703 91.586730251591 85.027186665703 85.138441362477 85.138441362477 85.027186665703 85.027186665703 83.660251449956 83.660251449956 83.660251449956 83.660251449956 83.660251449956 83.660251449956 83.660251449956 83.660251449956 117.19409333692 119.93746488798 122.65478159694 119.93746488798 113.7054250545 117.19409333692 117.19409333692 117.19409333692 18.404496566142 18.404496566142 18.404496566142 18.404496566142 18.404496566142 18.404496566142 18.404496566142 18.404496566142 81.031587914716 81.031587914716 81.031587914716 81.031587914716 81.031587914716 81.031587914716 81.031587914716 81.031587914716 50.681881816885 50.681881816885 50.681881816885 50.681881816885 50.681881816885 50.681881816885 50.681881816885 50.681881816885 19.400539448425 19.569689452289 20.695747613227 20.695747613227 22.77650174486 19.753881521142 18.442253522454 19.672216229796 43.454989263748 21.094234995054 20.537782307487 21.14401465415 21.086805146564 21.086805146564 21.086805146564 21.086805146564 105.888877884 104.05053994566 101.15722244517 101.15722244517 95.663344877006 97.509274949695 101.85172785283 100.62803781594 20.693296230545 23.334122510828 20.693296230545 20.693296230545 20.693296230545 20.693296230545 45.311351690642 29.20433225301 47.641641149346 54.162579481257 59.834244622178 59.331032983177 59.039969825619 59.331032983177 55.541099769201 54.162579481257 57.721178437779 57.721178437779 57.721178437779 57.721178437779 57.721178437779 57.721178437779 57.721178437779 57.721178437779 17.019390240692 17.115241039541 16.670966014718 17.041963576586 17.200605575263 17.185079524513 17.194505116746 17.189312537139 181.6837171736 181.6837171736 181.6837171736 181.6837171736 181.6837171736 181.6837171736 181.6837171736 181.6837171736 82.436527683881 82.436527683881 82.436527683881 82.436527683881 82.436527683881 82.436527683881 82.436527683881 82.436527683881 66.486150564976 66.486150564976 66.486150564976 66.486150564976 70.018003135984 70.018003135984 66.486150564976 66.486150564976 31.496070943949 31.496070943949 31.496070943949 31.496070943949 31.496070943949 31.496070943949 31.496070943949 31.496070943949 81.170583212783 81.170583212783 81.170583212783 81.170583212783 81.170583212783 81.170583212783 78.669617705015 78.669617705015 13.140190978326 13.140190978326 13.140190978326 13.140190978326 13.140190978326 13.140190978326 13.140190978326 13.140190978326 80.393080264097 80.393080264097 80.393080264097 80.393080264097 80.393080264097 80.393080264097 80.393080264097 80.393080264097 84.310532575765 98.486098560523 98.486098560523 98.486098560523 98.486098560523 98.486098560523 92.744181481013 98.486098560523 82.132278002035 82.132278002035 82.132278002035 82.132278002035 82.132278002035 82.132278002035 82.132278002035 82.132278002035 16.928471138959 16.928471138959 17.224712035252 16.928471471088 16.928471308733 16.928471308733 16.499801992246 16.928471138959 86.534090862373 86.534090862373 86.534090862373 86.534090862373 86.534090862373 86.534090862373 86.534090862373 86.534090862373 118.10994006986 118.10994006986 118.10994006986 118.10994006986 118.10994006986 118.10994006986 118.10994006986 118.10994006986 78.6951999752 78.6951999752 78.6951999752 78.6951999752 78.6951999752 78.6951999752 78.6951999752 78.6951999752 16.918637592543 16.918637592543 16.918637592543 16.918637592543 16.918637592543 16.918637592543 16.918637592543 16.918637592543 66.31590650362 61.5593938088 59.107967543047 59.243176860527 58.7632614075 57.043456738709 53.505367912533 57.043456738709 58.885983631402 58.885983631402 58.885983631402 58.885983631402 58.885983631402 58.885983631402 60.416005543981 60.416005543981 38.502167035341 38.502167035341 38.502167035341 38.502167035341 38.502167035341 38.502167035341 38.502167035341 38.502167035341 83.622368189512 83.622368189512 107.69392641804 94.420888174097 90.794771092322 95.103805329589 92.551849466429 83.622368189512 114.59329037589 114.59329037589 114.59329037589 114.59329037589 114.59329037589 114.59329037589 114.59329037589 114.59329037589 71.709024426519 71.709024426519 71.709024426519 71.709024426519 71.709024426519 71.709024426519 71.709024426519 71.709024426519 82.033066679602 82.033066679602 82.956133271126 82.956133271126 79.520395871453 79.927731142878 80.446683103032 80.446683103032 18.083951798854 17.944430165069 14.922721490699 14.922721490699 14.922721490699 14.922721490699 16.343050859359 16.417619514675 70.200676317181 70.200676317181 70.200676317181 70.200676317181 70.200676317181 70.200676317181 70.200676317181 70.200676317181 60.008779222888 57.784395650747 53.7097896806 53.7097896806 47.287366796473 50.444705546012 55.102353033246 54.886408546049 230.48710583287 230.48710583287 230.48710583287 230.48710583287 230.48710583287 230.48710583287 211.19157097774 211.19157097774 100.51190103106 100.51190103106 100.51190103106 100.51190103106 100.51190103106 100.51190103106 100.51190103106 100.51190103106 16.92989451729 16.92989451729 16.92989451729 16.92989451729 16.92989451729 16.92989451729 16.92989451729 16.92989451729 61.497097787951 61.852342510947 60.394767793014 62.03117469746 62.200449510388 62.200449510388 62.200449510388 62.200449510388 108.11935401975 108.11935401975 108.11935401975 108.11935401975 108.11935401975 108.11935401975 108.11935401975 108.11935401975 114.50957674822 114.15673249224 124.33332036201 114.15673249224 114.94316966634 114.50957674822 114.50957674822 114.50957674822 85.980840114924 85.980840114924 85.980840114924 85.980840114924 85.980840114924 85.980840114924 85.980840114924 85.980840114924 66.875890950678 66.875890950678 66.875890950678 66.875890950678 66.875890950678 66.875890950678 66.875890950678 66.875890950678 124.94841028954 124.94841028954 124.94841028954 124.94841028954 125.97728676732 125.97728676732 124.94841028954 124.94841028954 37.555372426715 34.445174671029 32.28201375946 33.677421604521 35.255362982935 33.677421604521 34.445174671029 34.445174671029 16.326552206924 16.326552206924 16.3701669814 16.247429458293 16.089712359614 16.241727393736 16.270398335234 16.270398335234 108.11940685743 108.11940685743 108.11940685743 108.11940685743 108.11940685743 108.11940685743 108.11940685743 108.11940685743 17.922099120271 18.420914305236 21.886887391676 18.420914305236 18.420914305236 18.420914305236 19.894310672673 18.420914305236 16.485415255121 16.657846702574 16.642833939767 16.649926800823 16.776260576602 16.776260576602 16.820244824578 16.739351434523 96.571277776129 96.571277776129 96.571277776129 96.571277776129 96.571277776129 96.571277776129 96.571277776129 96.571277776129 94.594067577189 94.594067577189 94.594067577189 94.594067577189 92.560582195129 92.560582195129 94.594067577189 94.594067577189 32.590264253814 32.590264253814 35.034824568006 34.196248263938 32.940359175694 33.069709252014 30.488838805744 32.456753263079 71.989851565702 74.504302667801 68.330334403928 68.59761221569 64.841690394643 71.320044352616 75.711792419231 74.504302667801 20.375682870515 20.359315195966 18.028126684311 20.440881876079 20.977902328602 20.440881876079 20.389843227234 20.389843227234 20.675660234494 20.675660234494 22.326455466085 24.529920389762 20.109670163976 21.014388393993 20.605935860176 21.014388393993 16.94622935079 16.94622935079 16.932646033591 16.94622935079 16.94622935079 16.94622935079 16.94622935079 16.94622935079 17.226671507307 17.226671507307 16.080950770733 16.080950770733 16.027798561625 16.080950770733 16.759275694275 17.492212330432 145.438209585 145.438209585 145.438209585 145.438209585 145.438209585 145.438209585 145.438209585 145.438209585 67.17298987467 62.938355893049 56.195430366878 62.938355893049 56.195430366882 56.195430366882 48.88870260647 56.195430366882 17.498035945879 17.630293201695 20.15633019331 18.08031868109 18.885165533275 18.08031868109 17.335012783905 17.704455670645 282.81523421656 282.81523421656 282.81523421656 282.81523421656 282.81523421656 282.81523421656 282.81523421656 282.81523421656 63.985326469582 63.985326469582 63.985326469582 63.985326469582 63.985326469582 63.985326469582 63.985326469582 63.985326469582 14.922721490699 15.260431229295 17.253553696581 17.253553696581 17.253553696581 17.253553696581 14.922721490699 15.228675628761 18.913227549137 18.913227549137 18.913227549137 18.913227549137 18.913227549137 18.913227549137 18.913227549137 18.913227549137 37.270582413795 37.270582413795 39.217401123587 39.217401123587 37.270582413795 37.270582413795 37.270582413795 37.270582413795 18.083951798854 18.083951798854 18.083951798854 18.083951798854 18.083951798854 18.083951798854 18.083951798854 18.083951798854 95.410002043968 95.410002043968 95.410002043968 95.410002043968 95.410002043968 95.410002043968 95.410002043968 95.410002043968 175.25089244535 175.25089244535 154.99546183033 154.99546183033 131.77728262694 131.77728262694 154.99546183033 154.99546183033 66.829763242895 66.829763242895 66.829763242895 66.829763242895 66.829763242895 66.829763242895 66.829763242895 66.829763242895 62.200449510388 62.200449510388 62.200449510388 62.200449510388 62.200449510388 62.200449510388 62.200449510388 62.200449510388 63.620610876136 63.620610876136 63.620610876136 63.620610876136 63.620610876136 63.620610876136 63.620610876136 63.620610876136 122.43066949719 122.43066949719 122.43066949719 122.43066949719 122.43066949719 122.43066949719 122.43066949719 122.43066949719 15.178553146461 15.178553146461 15.178553146461 15.178553146461 15.178553146461 15.178553146461 15.178553146461 15.178553146461 18.083951798854 16.732253467157 18.083951798854 16.318592240943 15.590901703568 15.564560451608 15.555703125542 15.564560451608 49.874813951401 49.874813951401 49.874813951401 49.874813951401 49.874813951401 49.874813951401 49.874813951401 49.874813951401 22.763886412901 22.763886412901 22.763886412901 22.763886412901 22.763886412901 22.763886412901 22.763886412901 22.763886412901 65.342332187112 65.342332187112 65.342332187112 65.342332187112 65.342332187112 65.342332187112 65.342332187112 65.342332187112 25.418290167344 19.593259475799 25.418290167344 22.152467613167 17.824686662125 17.824686662125 17.21374009991 17.21374009991 28.279609142834 28.279609142834 28.279609142834 30.822816509587 34.268043238446 30.822816509587 24.894045948952 28.279609142834 16.969288651495 16.969288651495 16.969288651495 16.969288651495 16.967435915874 16.969288651495 16.969288651495 16.969288651495 25.806857216514 25.806857216514 25.806857216514 25.806857216514 25.806857216514 25.806857216514 25.806857216514 25.806857216514 15.954225569031 15.95852000792 16.105422581141 16.105422581141 15.967491918519 15.967504768006 15.969290340141 15.967516187401 17.901502556603 17.901502556603 17.901502556603 17.47227057561 17.231469171316 17.47227057561 18.332373418173 17.901502556603 64.644581894201 64.644581894201 65.327990418284 65.327990418284 65.72164932094 64.950008523666 62.423364782342 63.540922234926 75.30037205461 75.30037205461 75.30037205461 75.30037205461 75.30037205461 75.30037205461 75.30037205461 75.30037205461 24.911557156798 36.11349422042 19.940509931739 21.296440953582 24.242888204249 24.242888204249 48.736102884144 27.021227763698 90.048081248108 90.724904598486 92.476278518272 92.572884948404 86.728449919505 89.770749459652 90.482323816231 90.482323816231 72.23293594976 72.23293594976 72.23293594976 72.23293594976 72.23293594976 72.23293594976 72.23293594976 72.23293594976 189.11712127006 189.11712127006 189.11712127006 189.11712127006 189.11712127006 189.11712127006 189.11712127006 189.11712127006 33.04314755052 33.04314755052 33.04314755052 33.04314755052 33.04314755052 33.04314755052 33.04314755052 33.04314755052 15.954195644937 15.954170672705 15.954046706787 15.954170672705 15.954225569031 16.214316386268 16.761417703122 16.214316386268 29.168409334582 29.168409334582 18.555618145622 18.92284077746 19.472111494414 19.472111494414 29.168409334582 29.168409334582 95.06154176532 95.06154176532 95.06154176532 95.06154176532 95.06154176532 95.06154176532 95.06154176532 95.06154176532 133.7238223202 133.7238223202 133.7238223202 133.7238223202 133.7238223202 133.7238223202 133.7238223202 133.7238223202 153.01269170682 153.01269170682 153.01269170682 153.01269170682 153.01269170682 153.01269170682 153.01269170682 153.01269170682 16.918637592543 16.918637592543 19.344307490622 18.03527189036 18.03527189036 18.03527189036 16.918637592543 16.918637592543 15.97407818499 15.97407818499 15.975954764055 15.964149333419 15.954223017831 15.965928896096 15.986266978566 15.967323954028 16.143789383229 16.143789383229 16.143789383229 16.143789383229 16.143789383229 16.143789383229 16.143789383229 16.143789383229 81.973622861554 79.79313829002 78.896779985744 77.160154338282 65.316495084349 74.455435733039 80.760010887168 80.760010887168 51.92236252142 51.92236252142 52.310512865996 52.310512865996 52.310512865996 52.310512865996 52.310512865996 52.310512865996 25.089535122629 25.089535122629 25.089535122629 25.089535122629 25.089535122629 25.089535122629 25.089535122629 25.089535122629 133.7238223202 133.7238223202 133.7238223202 133.7238223202 133.7238223202 133.7238223202 130.62995792382 130.62995792382 49.33883610819 49.33883610819 49.33883610819 49.33883610819 49.33883610819 49.33883610819 49.33883610819 49.33883610819 16.022786487391 16.031576726246 16.012096800455 16.02734708829 16.063693518832 16.04270721536 16.046276112034 16.046276112034 45.312095495528 45.312095495528 45.312095495528 45.312095495528 45.312095495528 45.312095495528 45.312095495528 45.312095495528 18.083951798854 18.083951798854 18.083951798854 18.083951798854 25.915492456077 20.399319558798 18.700905584057 18.357807813265 45.979311258841 46.481634985736 43.295784537243 43.295784537243 40.526215913617 42.102181328214 42.919911680686 42.919911680686 59.326554201088 59.326554201088 58.295714530832 58.295714530832 57.128511379345 57.128511379345 62.286574810881 60.722060083446 16.851500669158 17.1950845473 17.67378202896 17.67378202896 20.236146600056 20.236146600056 18.10599517508 17.653506436994 84.19533904346 84.19533904346 84.19533904346 84.19533904346 84.19533904346 84.19533904346 84.19533904346 84.19533904346 60.708133538819 60.708133538819 60.708133538819 60.708133538819 60.708133538819 60.708133538819 60.708133538819 60.708133538819 34.922702289344 35.836418178962 36.874276341825 36.874276341825 39.751588543238 39.751588543238 36.874276341825 36.874276341825 10.77164365349 10.77164365349 10.77164365349 10.77164365349 10.77164365349 10.77164365349 10.77164365349 10.77164365349 15.954225569031 15.954225569031 16.532229372191 16.174406225273 15.9824300589 15.997173438354 15.953971863546 15.95402890835 64.576727375665 64.576727375665 64.576727375665 64.576727375665 64.576727375665 64.576727375665 64.576727375665 64.576727375665 29.844777171285 29.844777171285 29.844777171285 29.844777171285 29.844777171285 29.844777171285 29.844777171285 29.844777171285 65.766358232538 65.766358232538 65.766358232538 65.766358232538 67.073954328907 67.073954328907 65.766358232538 65.766358232538 16.473877454765 16.473877454765 15.883847440304 15.883847440304 16.177457474737 15.983418164305 16.285132568924 16.473877454765 110.6367398346 110.6367398346 110.6367398346 110.6367398346 110.6367398346 110.6367398346 110.6367398346 110.6367398346 68.89120816835 68.89120816835 68.89120816835 68.89120816835 68.89120816835 68.89120816835 68.89120816835 68.89120816835 17.321832644031 17.321832644031 17.321832644031 17.321832644031 17.321832644031 17.321832644031 17.321832644031 17.321832644031 64.717342408136 66.931384922934 53.739833637914 53.739833637914 49.458140980433 50.231169108119 58.261735646611 60.184946495046 19.605710037626 19.605710037626 19.513761749744 19.513761749744 19.447443561971 19.447443561971 19.590731310436 19.590731310436 18.083951798854 18.083951798854 18.083951798854 18.083951798854 18.083951798854 18.083951798854 18.083951798854 18.083951798854 16.024565306979 16.010018917489 15.9540513009 15.99312846492 15.991417445134 15.99312846492 16.014622048928 16.014622048928 15.970422864702 15.954041756846 15.954108240693 15.954108240693 15.954171309507 15.954108240693 15.953971863546 15.9540735946 70.145435474226 70.145435474226 110.6367398346 79.652943575685 70.700002384823 75.07781575604 70.145435474226 70.145435474226 171.42332429577 157.5974726409 171.42332429577 171.42332429577 187.00231101918 171.42332429577 145.19606423037 157.5974726409 93.910966455874 100.40703846038 108.47648953347 102.68292707831 98.160951039268 98.19712695995 98.231767616514 98.19712695995 60.383841620417 59.493360086473 59.499164578565 59.390839570608 59.614839541186 58.704866602456 54.428919234861 59.60099565678 20.298455158581 20.298455158581 21.136806325433 21.136806325433 21.136806325433 21.136806325433 19.680082890788 20.298455158581 22.129666788689 16.614393181237 16.351530718354 16.517593536072 16.201193796081 16.65102559104 16.764035666571 16.70896153535 15.969290340141 15.969290340141 15.969290340141 15.969290340141 15.969290340141 15.969290340141 15.969290340141 15.969290340141 95.000978023246 95.000978023246 85.360566426275 86.421212146739 88.254848129196 97.484910877258 95.000978023234 97.484910877258 135.05014130507 135.05014130507 135.05014130507 135.05014130507 135.05014130507 135.05014130507 135.05014130507 135.05014130507 69.154341998342 69.154341998342 69.154341998342 69.154341998342 69.154341998342 69.154341998342 69.154341998342 69.154341998342 66.435750829995 66.435750829995 66.435750829995 66.435750829995 66.435750829995 66.435750829995 66.435750829995 66.435750829995 16.764035666571 16.764035666571 16.764035666571 16.764035666571 16.764035666571 16.764035666571 17.492123043565 16.764035666571 58.849554559358 58.849554559358 58.849554559358 58.849554559358 58.849554559358 58.849554559358 58.849554559358 58.849554559358 43.056081536885 43.056081536885 43.056081536885 43.056081536885 43.056081536885 43.056081536885 43.056081536885 43.056081536885 67.716701154414 67.716701154414 67.716701154414 67.716701154414 67.716701154414 67.716701154414 69.404154031545 67.716701154414 92.658582720213 92.658582720213 92.658582720213 92.658582720213 92.658582720213 92.658582720213 92.658582720213 92.658582720213 74.996042025404 74.996042025404 74.996042025404 74.996042025404 74.996042025404 74.996042025404 74.996042025404 74.996042025404 17.21374009991 17.21374009991 17.21374009991 17.21374009991 24.516091931912 23.60367363878 27.59302207351 27.59302207351 22.154140846949 22.154140846949 19.423980936793 22.465806839369 23.807318660778 22.792634742563 22.154140846949 22.154140846949 17.485280975169 17.485280975169 17.485280975169 17.485280975169 17.938343812754 17.485280975169 17.485280975169 17.485280975169 94.765046404523 94.765046404523 94.765046404523 94.765