# vtk DataFile Version 3.0
d-3__ libgimli-v1.1.0: I=1 lam=20 wz=1 rrms=3.37701% chi^2=0.485744
ASCII
DATASET UNSTRUCTURED_GRID
POINTS 470 double
0.272363801744	44	-10.300586772487
0	40	-10
-4.500262111134	44	-4.93681660625
-7.993885763307	44	-12.836875066617
-30	44	0
-35	44	0
-32.570880971283	44	-6.976934294907
-33.646811340063	39.418319139935	0
40	40	-10
32.53137650062	36.964527387221	0
29.166761411729	33.35595542976	-9.356710876955
38.402811806514	29.517962753268	-7.48534948655
-22.833494540804	-2.21733778554	-59.3349
-19.420349205693	-25.457550315156	-59.3349
-4.869428618342	-17.74989188559	-59.3349
-16.694111047644	-14.040866352148	-42.422359935105
33.668891248578	-36.972933038852	-7.215569724013
21.305563672112	-35.416491860352	-17.484305448194
33.986519138325	-29.017227170022	-12.199880547091
27.267936133094	-39.875639263154	-15.695802195275
40	40	0
44	40	0
44	35	0
44	38.186452214254	-4.584822813559
20	-20	-10
26.647829952736	-34.032646945994	0
20	-20	0
14.564090435715	-31.268863395065	0
44	-10	0
44	-5	0
44	-7.39754692349	-6.762999222188
39.126641766192	-6.47435799726	0
44	10	0
44	5	0
36.936203808871	5.780639272082	0
44	4.53162220644	-5.111251770234
22.752699050932	31.495921448422	0
7.533897517181	31.632854973023	0
12.078392502524	36.414994534396	-9.8425335241
20	20	-10
-21.725235532803	34.903051797081	-20.531737924026
-31.056695026573	44	-20.291765165388
-35.88288137716	37.930094356881	-18.63415736472
-26.44301638426	44	-13.777425555411
-40	-40	-10
-39.496789984084	-44	-10.319085362331
-33.958552619352	-44	-5.863894322602
-38.58099971307	-44	-4.326840082265
-33.702249682106	16.470147225928	-22.300380471969
-12.751267599502	8.901857230185	-30.253931930328
-33.27120362524	6.485335777999	-40.196812444798
-22.734731483809	29.139712013518	-37.196696278437
39.395261728961	-44	-10.696021193178
40	-40	-10
32.807979488397	-44	-6.972450938888
38.199892107114	-44	-4.571001550553
44	-44	-16.1668625
44	-44	-22.333725
38.092199210243	-44	-18.527949271274
44	-38.161985389631	-17.81515812429
44	-39.938587558317	-10.852454258499
44	-44	-10
44	-44	-5
37.296031707315	-38.236198152948	-17.436350824406
44	-36.683841504429	-26.808124583834
-20	40	-10
-16.513726033164	31.003971889579	0
-9.240740002744	35.766109621978	-10.25547418901
-13.610391247528	38.628112898472	0
44	-33.173773493593	-12.288318185035
-44	7.326325665972	-7.120923617009
-44	10	0
-38.070648164791	12.755549999818	0
-44	14.339094638135	-6.005613476749
-0.209365720675	-44	-10.306210671069
0	-40	-10
7.580314755854	-44	-12.128245604714
2.43127079233	-44	-18.06817868296
-44	-14.975482028108	-14.979736630835
-40	-20	-10
-44	-21.469841310203	-15.704006904679
-38.732135997217	-19.235628902367	-17.662084598115
-20	40	0
-20	44	0
-15	44	0
-17.970915963649	44	-5.609631982232
-19.945966707997	-44	-10.331684501926
-20	-40	-10
-13.336811840192	-44	-12.56674764032
-19.085391910764	-44	-16.647589943807
-44	30	0
-44	25	0
-44	27.223426478645	-6.612571653908
-37.451697461283	25.808142294318	0
-34.784514057663	-8.922110863242	-10.616219009914
-31.053625112262	-16.49873134446	0
-31.804630347533	-21.930822772888	-9.684162277497
-20	-20	-10
-10.658590016819	-34.944904341284	-10.796704566669
-18.833799386776	-32.333120506526	0
44	-30.853789227412	-20.141049740822
40	-20	-10
44	-20.303331732645	-9.92530844663
44	-18.302921698976	-16.494720689613
44	-13.145764956202	-11.877300064053
-30.680748292348	-19.317513638796	-25.208782147121
-25.175960875298	-34.727817500981	-20.108401436734
-36.478383779119	-28.605870089601	-24.57275945004
0	0	-10
-20	0	-10
-9.022649746997	-23.164711464924	-24.476985194176
40	0	0
40	0	-10
44	-1.726843235774	-4.58471722592
-32.692305946496	-5.75809022432	-23.613106526509
39.434520927085	44	-9.934244233886
44	44	-10
44	44	-16.1668625
13.332899328283	44	-12.47909675675
20	40	-10
17.635559823183	34.079455224508	-18.888307733626
19.106566343212	44	-16.614668966325
-44	20.172251564728	-3.966190439408
-14.492881823303	-44	-32.566119263644
-30.742448725516	-44	-35.169800672224
-22.054792880396	-32.289921971484	-36.233165865424
-25.091646500872	-44	-46.438778515233
30.306809144048	20.430783558345	0
-44	-9.842806025912	-23.016460555217
-40	40	-10
-28.866154254972	36.076118773818	-8.249255643268
-33.751229744594	44	-13.89275039801
-40	-20	0
-44	-20	0
-44	-15	0
-44	-18.431369173497	-4.587996689507
44	-44	-34.66745
35.464415222993	-44	-27.797677285625
1.769009735803	44	-4.528212713211
-15	-44	0
-20	-40	0
-14.29625427444	-44	-5.784717372036
-20.119072039319	-44	-4.011145640518
-44	-39.389553714228	-10.662329239424
-44	-44	-16.1668625
-44	-38.226152949933	-18.272599659601
0	-20	0
0	-20	-10
5.501962264698	-35.552988884493	0
-7.099011437759	-31.750996753894	0
44	20.098037835306	-10.296662038625
40	20	-10
44	25.831997938984	-5.98167622915
44	27.268058039339	-13.729146672803
35	-44	0
33.645586733078	-38.844332051483	0
-44	33.301331912951	-12.14918731111
-44	38.617329291564	-16.256716866391
44	-23.474128651438	-20.914585731419
44	-25.741740820871	-14.356978627678
-32.845380343082	-44	-12.721290644411
-31.270503724697	-44	-19.312114681687
-37.990467744352	-44	-17.885740742088
-37.197478504151	-37.994153903534	-18.649753286052
4.450390766053	-44	-4.853093304592
0	40	0
0	44	0
5	44	0
-44	-12.716855854338	-6.9291967142
-38.738211932982	-13.575563481443	0
-39.345694652905	44	-10.627527590031
-44	44	-10
-44	44	-5
-44	1.376296589515	-43.794942788976
-33.278523002173	-18.288406201049	-41.90686105267
20	40	0
14.315272114749	44	-5.720248877904
20.116983163541	44	-3.948762744459
36.644199766188	-12.523533493857	-10.264430740101
44	-11.365455853293	-18.131961263141
35.328391976889	-8.481098038517	-20.871552580541
44	-5.919254391868	-14.579121870449
-44	-44	-10
44	28.657879987624	-37.926988387294
44	9.977056738485	-35.955215259996
44	20.190765845245	-29.420440063434
33.885015459326	17.98758043623	-35.063965615776
32.961455799541	44	-12.207398809906
33.200145490225	44	-19.781991577058
37.201696009651	36.520281041491	-17.237024073062
25.930279793761	44	-15.056362367617
40	-44	0
40	-40	0
44	44	-22.333725
44	44	-34.66745
44	35.445693248701	-26.062196379198
34.848680797592	44	-28.496254259884
-44	-33.987026797195	-13.728603769156
44	-40	0
44	-35.841261299858	-4.941982428982
32.444581898258	-20.712422531183	-23.827083502854
13.414184818314	-30.919700348005	-25.561457542033
-44	-32.712846510359	-6.850999651455
-10	-44	0
-5	-44	0
-7.296843952727	-44	-6.9626328234
-6.700523058765	-39.096496296212	0
30.89469890952	31.650337144237	-24.434127011919
29.792634155996	44	-40.696321519696
44	22	-59.3349
44	39.391042479241	-10.685556503369
38.631363785736	44	-16.059905665641
-9.7573284597	44	-37.265445747597
0	44	-59.3349
11.431998304301	44	-37.555891630483
9.083409521674	21.970273378671	-31.775803050763
-20	20	-10
-36.532975715586	28.13083671278	-11.813673281227
-32.33331957462	18.831646944158	0
-28.318952461108	27.5657950965	0
44	15	0
36.947846971148	13.604857274148	0
44	19.868186311792	-4.018580011277
44	12.769411700465	-6.830126589647
-20	0	0
0	0	0
-10	-10	0
-31.74800473397	7.082899721716	0
-36.218113917978	8.323368597529	-10.645789754324
-44	-44	-34.66745
-35.276650545704	-44	-25.845118696624
-44	-35.820013486244	-26.180147888451
-44	0.531876396651	-10.466804380793
-40	0	-10
-44	1.784957029969	-4.590763209976
38.104000781484	-12.837873593079	0
-44	-4.46848364182	-5.064242662076
-44	-6.913596214458	-13.141138735849
13.276619176301	37.94661571828	0
-44	39.993760723931	-10.667590247833
44	44	-5
7.306074378988	44	-6.939135920015
10	44	0
25.922508466087	39.045344442647	0
-40	20	-10
8.694423964754	-31.515874250852	-15.295121318826
0.881377830979	-36.880951554042	-20.879682077816
0	-40	0
-1.761671715854	-44	-4.519514219245
40	20	0
-44	-35	0
-40	-40	0
-44	-38.185137692338	-4.556770415852
-39.419610825329	-33.646373762295	0
44	34.046252980297	-13.8092819999
44	32.165710527173	-19.110531026056
-38.160436375971	44	-4.562803346239
10.864279026619	-10.211459229047	-31.879458297077
1.421309414609	-31.942142654697	-40.751430057397
0	-44	0
-5.706767716645	35.461874303523	0
0	20	-10
-4.244319914505	-44	-24.147449804989
4.486024887423	-44	-26.734616666588
-12.756630141131	-38.070834843052	0
44	-0.647016802182	-10.160207074834
-36.325962304502	33.361507158383	0
-27.146559797802	36.83417317675	0
40	44	0
38.46541203847	44	-4.209088645323
-44	-30.926320916425	-34.857546799291
-34.590404025635	-32.062579646999	-10.670495254617
44	0	0
-35	-44	0
-33.363412680009	-36.325317619176	0
20	44	0
25	44	0
32.804543632258	-21.287501881154	0
44	30	0
39.16074015103	33.848987793932	0
44	32.785936244325	-7.044192271138
-10	10	0
-20	-20	0
-36.843181138283	-27.143558549613	0
5.730395291787	44	-15.200768112005
-1.615233956975	44	-17.006106310168
-44	44	-22.333725
-44	44	-34.66745
-36.067236790642	44	-26.453758506508
-44	35.263764966008	-29.553932073279
16.71863695427	16.17759871678	-59.3349
22	44	-59.3349
-7.773850123251	-44	-44.817087951579
-1.516728802801	-44	-33.192471707309
-5	44	0
-44	20.163385560394	-10.08985439524
-44	13.807203894382	-13.766165281466
-44	20.020430870521	-14.90868932856
20	-40	-10
12.97131266799	-38.437854296719	-9.187466895186
-44	-24.837464840996	-5.148923435635
30	-44	0
-44	-44	-5
-14.822719507038	44	-17.115414548948
-44	35.815270505966	-4.927574060664
44	-15.297478408625	-4.953748130715
-44	44	-16.1668625
44	20	0
44	25	0
-44	-31.42782900065	-19.46873453391
-44	-26.885445402385	-25.397623516297
-44	-25.428714578078	-19.079841828916
22.880015212537	-44	-18.323741385491
22.834180551768	-44	-12.766589711266
-36.231876097338	31.488895361587	-28.242728566469
-44	20.342657951296	-21.204993242074
-20.918383809287	44	-10.391158812682
-24.777144993563	44	-5.397475277731
-30	-44	0
-32.67247267369	-32.090214758223	-59.3349
-32.780680223621	-15.7489701154	-59.3349
-44	-19.940546418703	-10.15590521408
-0.965434624055	-0.133045041884	-59.3349
-12.528745101239	20.449616035627	-59.3349
-20	20	0
-19.922358691033	44	-15.34236975573
-11.792970664506	44	-6.009017036289
-10	44	0
24.649503602372	-44	-6.197399958506
[...]
CELL_DATA 1486
SCALARS Resistivity(log10) double 1
LOOKUP_TABLE default
1.9977867000074 2.0132477449152 2.0061215966047 2.0326521393985 2.0052969511825 1.9824330173485 2.0114671130786 1.9668124313266 1.9757050372817 2.008060264494 2.0107397793929 2.0188104695088 2.0216635156721 2.0086861229776 2.0116650381494 2.0044689129787 2.0130232780097 2.0086520890851 2.0038990349227 1.9666144615937 1.9931019794792 1.9886281258083 2.0065360263033 2.0047646636905 1.9805301047335 1.9907931199699 2.0097897680209 2.0052391523094 1.9755797710587 2.0131304118597 2.0012783445829 1.969220582955 2.0046954184651 2.0128812523303 2.0058481025538 1.9787422031436 2.0263145554762 2.0039967698268 1.9954756140838 2.0094767309304 1.9680418901866 2.0185741669597 1.9992224879414 2.0057696168667 2.0131837638315 2.0171321495579 1.983970551332 2.015703928861 2.002456518238 1.9873741654171 2.017828264512 1.9941422201491 2.0061809410409 1.9984644019768 1.9731114454671 2.0055471634135 2.033945072434 2.0073099659195 1.9841441372266 2.0133081122962 2.0248170865453 2.0172937102431 2.0173329473143 2.0056360272975 2.0245241451861 2.031450697744 2.0101660094134 1.9885678658025 2.0137707164797 1.9971635280263 2.0071122277528 2.0102090795576 2.0055207010234 2.0101932107693 2.0090991024096 1.9687842730353 2.0182750258677 2.0351074155918 2.0124590029513 2.0230294735734 1.9998040746041 1.9631739013571 2.0026505989377 2.007862625538 2.0049865287441 2.0248001887477 1.9720910951318 1.9710931485816 1.9748787628451 2.0154709116504 2.0211366429083 2.0061680817117 2.0041513157173 1.9992038011766 2.0102956541703 2.0170436038669 2.0049576670885 1.994060660282 1.9937921527458 1.9939858181195 1.983304256003 1.9908391610807 2.0058746827166 2.0124823735239 2.0169145190442 2.0085658771594 1.9885065351995 2.0145866653539 1.9991473243638 2.0222451097707 1.9702665140563 2.0026174008 2.0173894805405 2.013436780158 1.9743643236919 2.0187258348215 2.0225187993998 2.0286518833397 1.9798473156192 1.9947335917213 2.0168963547275 1.9701262165468 2.0329067679682 2.0107667602841 2.0158227038424 2.0263065703475 1.9944020177133 1.9803553773092 1.9888677453444 2.0122911012153 2.0067433562965 2.0065266568425 1.9985622226711 2.0009579185825 1.9962869054466 2.016421892089 2.0034912402921 1.9974340147589 2.0339026440138 2.0183014296137 2.015608815013 2.015518358599 2.0011200330692 2.0132054233239 1.9771725554116 2.0010613296264 1.988392325492 1.9938859193196 2.0119892712828 2.0120090241181 2.0033592142022 1.998739892022 2.0211425985727 2.0021243625074 1.9627239142224 2.0060132704556 1.9687391599701 2.0119937863214 2.0065982015 2.0061192645878 2.0326137872779 2.0017336427273 2.0012409183255 2.0013338000499 2.0099263832905 2.0238768815387 2.0143380037082 2.0355361974405 2.0075133374997 1.9908017284377 1.9767329083626 2.0283413310683 2.0153254177882 2.0030579641569 2.0090013845934 2.0036353356159 1.9999950067484 1.9990815868534 2.006108106142 2.0194357569299 1.9766876860982 1.997076820761 2.0114760017481 2.0302663715596 1.9702362252302 1.999041390114 2.0158841229235 1.9980815002134 1.9965409238548 2.0058038730081 1.9936724642142 1.9797637436558 2.0045479686392 2.0071559207921 2.0116816172179 1.995038049492 2.0000018744309 2.0072606606983 2.0125492379012 1.9715294313659 2.0172045254577 2.0081458653445 2.0007069464937 2.0096282943607 2.0125585080139 2.0120802743623 2.00304782152 2.0189363335009 2.0185731499917 1.9711666167377 1.9908155765062 1.9985933404591 2.0207052137102 2.0058695445383 2.0093476389447 1.9997203488564 2.0119295249405 2.0178628949583 1.9788444074665 2.0121438991605 2.0023968415022 2.0260199263959 1.9725414461135 2.0100705864413 1.9702442223499 2.0292225127318 2.0016690191943 1.9643430990742 2.03224872345 2.0060563108512 2.0375169281874 2.0166790834808 1.9739981210451 2.0120132251473 2.0273078387789 2.0134512117011 2.0187531142174 1.998132675972 1.9986360424943 2.0040042121377 2.0091185209273 2.0070314597381 1.9876057972668 1.9992486775122 2.0022733346155 1.9670000779109 2.0251258217287 1.9955961591266 2.0091723012705 2.0067413360596 2.0134933410171 2.0152869370951 2.0081459760909 1.9621325878584 2.0256833082965 2.002065095451 1.9978405095525 2.0159418544892 2.0237581555176 1.9765158372921 2.0311791833791 2.006341801348 2.0161911426943 2.0058745135472 2.0135193411157 2.0197211548883 2.005403051716 2.0083344264718 2.0334282795653 2.0203328516971 2.0173843989434 2.0134574767939 2.0126166161836 1.9974780332091 2.0080123102175 2.0101014741882 1.9929237205718 1.9757769290125 2.028009106905 1.9742849753422 2.0055606098154 2.0015246693896 2.0129236729774 2.0095172276147 2.0142164617022 2.0155380664168 2.0054858222418 1.9864795509962 1.9966326513013 2.0071959584589 2.0052976326914 1.9938022429639 2.0144104755852 2.0197925911495 2.0077381108872 2.0025822468775 2.0223156319744 2.0023085593513 2.0062975290433 2.0126516976022 2.0113505329645 1.9880059697672 2.0126083774531 2.0104629044878 2.0032276165609 2.0165892656425 2.0119140015131 2.0157546341693 1.9780709525017 2.0276509687647 2.0166821055574 2.0143891711974 2.0072441392498 1.983279535868 2.0098484384724 1.9944988123335 1.9783958233759 2.016108608033 1.9784285980277 2.0101482708154 1.9770814349083 1.9977504324146 2.0167811001875 2.0091313367651 2.0003242443092 1.9835088012305 2.004971711581 1.9899767437955 1.9649826719619 2.0109072101153 2.0120007595929 2.0164257396651 2.0067071239803 2.0216213436022 1.9982792722709 2.0010363686571 2.0131765238079 2.0145182842193 2.0012358547998 2.0044869714444 2.0159758760112 2.0094068553631 2.016393757049 2.0132481990835 2.0089219230439 2.0175523315703 2.0060248552387 1.9989774102819 2.0023995846251 2.011199431899 2.0050718803726 1.9948238931121 1.9985944339252 1.9782759085448 1.9884810032329 2.0082081157492 2.006910143892 2.0152485720258 2.00641347762 2.0178405901243 1.9916724427402 2.0007916693941 2.0014522036415 2.0070185269351 2.0013695268825 1.9814567375347 1.9988725801273 1.9985244200552 2.0109928254281 1.9689102205104 2.0174075085715 2.0054889430962 1.9931959180978 2.0089894380657 1.9711599333377 2.0098950595494 1.9933750750415 2.004916412736 1.9720960172537 1.9957819412252 1.9775764270583 1.9790443704086 2.008531778323 2.00495980872 2.004522210566 2.0029975804396 2.0010458329371 2.0080259941471 2.0003679278582 1.9993776263865 1.969560802848 1.9918359044489 1.9974618077456 2.0236891590062 2.012096889401 1.9928771647044 2.0074788816652 2.0138683012705 2.0087160018711 1.9753480464535 2.0024363722059 1.978389058817 2.0266320425216 1.985041774201 2.0059578212392 2.0162871302908 2.0120226461162 2.0086012991427 1.9978060112797 2.0032523407532 1.9739688948782 1.9753629017387 2.0165843769146 2.0067541049222 1.9795781253112 1.9945786877135 2.0032486395233 2.0017903336364 2.0081688462948 2.0013337663592 2.0245727265296 1.9745172694031 2.0313419460558 2.0095465782557 2.0103238289992 2.0039285041625 1.9818933957119 1.9852866268341 1.9758119384679 2.0280727872535 1.9752672379039 2.0130345968304 2.0271959852495 1.996007311348 2.0108823824243 2.0042610722068 2.0102390164261 1.9817459146795 2.0258420038231 2.0054781447848 1.9703860156801 1.9998854205764 2.0052126286379 2.0113285201424 2.0082795613479 2.0091105911194 1.9766121719936 1.9907249243621 1.9948768206618 2.0095337395733 2.0151559606175 1.9931052917748 2.0010873164202 2.0208409151125 2.0104473385658 1.9660167829918 2.0120702542267 1.9646277592851 1.988537976105 1.9710904849963 2.0294271545827 2.0014011694986 2.0172999426493 2.0381935662711 1.989891974429 2.034546732718 2.0157237609458 2.0001805146144 2.0332554578617 1.9958480412817 1.9989662055556 2.0033544064145 2.0238133819298 2.0056608144931 2.0151417605929 2.0167651420727 1.9760479486064 1.9796610252818 1.9894090217294 1.9906355547463 1.9583840112737 2.0140279855647 2.0164809644677 1.9732518685617 1.9940566487373 2.0253929883742 1.9738375242608 2.0029589640023 2.0174551744195 1.9893548002588 2.0129956944113 1.993825109795 2.0082142940507 1.99462575169 2.0017081166517 1.9853664539203 2.0029463818256 2.0166884121947 2.0142464077649 2.0152220689507 2.0105326620248 2.0000051075589 1.974604117879 2.002746381322 1.9909359749 1.9726685820302 2.0351486725703 1.9959556682931 2.0072283573659 2.0090406446691 1.9724196408326 2.0143004191982 1.999809574434 1.9736021961928 2.002867030374 1.9650859153821 1.988834462966 2.009669987076 1.9694198911621 1.9735011184238 1.998120299419 1.9959190280104 1.9650631627989 2.0047349379803 1.9579833624825 1.9934132800748 1.9765691324794 2.0070206787518 2.00254850902 1.9826320183363 1.969392545074 2.0123853165537 1.9968712190392 2.0113120223188 2.0156128355725 1.9719130619215 1.9877683907981 2.0016227441903 2.0358777940962 1.9788404258751 2.0301097968967 1.9846538989127 2.004147380956 2.0044820663984 2.0013305724233 2.0019670500586 2.0235684253786 2.0034268412151 1.9595040362349 1.9974121976234 1.9961573169738 1.9743962583372 2.0039639346402 2.0082821723007 2.0338265265459 1.9920920107929 2.0038842483915 1.9992258636352 1.9979953162403 2.0009954373475 2.0011197612229 2.0047075380773 1.9690938826568 1.9818469246295 1.9948479081667 2.0060892574993 2.0036658138315 1.9715219282048 2.0365350399621 2.0053592997754 2.0043422688984 2.0124380351102 2.0029206502086 2.0104578323712 1.9620986181852 2.0128709573984 1.9991855215498 2.0113841069694 2.0109010887489 1.9943444123802 1.9803547315872 1.9849556082729 2.0039560215268 2.0002000284984 1.9793966703792 1.9724061561478 1.9982182256232 2.0016627048498 2.0101271168829 1.9781615609655 2.0364744477488 2.0090765392274 1.9989200890381 2.0031030209422 2.0050628236358 1.9683806292857 2.0018154502799 2.0305726924248 2.0305849398719 2.021638911452 2.0288754778363 2.0014184688284 2.0096450609992 1.9711673779869 1.9652376921877 1.9686717974763 2.0047406581375 1.975878853659 1.9953906503959 1.9984116585212 2.0078605304492 1.9979212946239 2.030361595985 2.0036324363432 1.9932201073896 1.9839359204493 2.0103969307963 1.9718759702067 2.0188739680206 2.0123913113507 1.9979831366982 1.967777796396 2.0201649431848 2.0168930719281 2.0114047578578 1.9933377399031 2.0013392096328 1.9775360172691 1.9970680399704 2.0023038371609 1.9752437386129 2.0185267806028 2.0017209261689 2.0091696765033 1.9935191580078 1.9903743786802 2.0013363531412 1.9692461227201 2.0156840277433 2.0370548456301 2.0013872966323 1.976446854692 2.0016611039452 1.9785288966048 1.9928800865932 2.0051970058477 2.01886891179 2.0138551394449 1.9782891656664 2.0143648788432 2.0109665691229 1.981688258557 2.0078835418839 1.9898434508881 2.0182634610902 2.017468751679 2.0128544411478 2.0088057001571 2.0033285928699 2.0078382184762 2.0015145316182 2.0039145016425 2.0016563800954 1.996607530571 2.0098860330059 2.0344233098696 2.0318509884879 2.0123984835552 2.023751043872 2.0052133876781 1.9834163544719 2.0084716751671 1.979488378496 2.0313765558527 2.0138125786898 2.009020151986 1.9871128237254 1.9962137400625 1.9989531056755 2.0096081204978 1.9958223554873 1.9873995673046 2.0041711717587 1.9756847734836 2.0024589971349 2.008198532802 2.0352806231507 1.9603929780587 2.0173495187436 2.0188733398843 1.9736388743559 1.9798597760383 2.0202382814696 1.9898322226733 2.016306406578 2.008332812427 1.9777609990628 2.0061230873487 2.0352825531164 2.0151218001009 2.0167069569056 2.0176515823772 1.9979604014974 2.017233306376 2.0163225269725 1.9971511773646 2.0064097685671 1.9715647905808 2.0146416020824 2.0063606119259 2.0189760109909 2.0036585178337 1.9968601251875 2.0145051373018 2.0300800558221 2.0002556899119 1.9727935896239 1.974400840525 1.9721092227474 2.0034440768256 1.9791659263745 1.9986514910827 2.012454835501 1.9704587440759 1.994907722183 2.0017783059965 1.9975560890975 1.9879029377964 1.9925340431759 1.9902310948392 1.9967636404861 2.0052937729929 2.0064820630624 2.0144560703211 1.9876740673658 1.9957565828881 1.994515179176 2.0153871686107 1.9860742746199 1.9719399667185 2.0154842583667 2.0329037073558 1.9886772968157 2.0066935933397 1.9792714687776 1.9886756088859 1.9608189486585 2.0301607694931 2.0199692033263 1.9773252265056 2.0122521664018 2.0032016956815 1.9957210094387 2.0112903960724 2.0201501958593 2.0159417574309 2.0051416741614 2.0062297498355 2.0223599185457 2.0075141761892 1.9954704573394 2.0124630364354 1.9996851105322 2.0083927156456 2.0105367868643 2.0372328839433 2.0043235833168 1.962908453133 1.9979071673968 2.0169045972158 2.0144412905406 2.0069002746809 1.9600622307957 1.9624619991563 1.9876266509694 2.0096152385154 1.9854272714393 2.0108006002015 1.9988436806702 2.0296544114306 2.0148580290983 1.9756783929038 2.0319148237079 1.9979304440458 1.9716614838466 1.9799980737338 1.988355419404 1.9813534610502 1.9980360770423 1.9717383335445 1.9701945699115 1.9694710062854 1.9684590904649 2.0100048337565 2.0258910178799 1.9919290791957 2.0058045202089 2.0133154510082 1.9959714060135 1.9972733321273 1.9965891218845 2.0025435144298 1.998203466919 1.967058249961 2.0049213876397 1.954053419773 2.0151563059181 2.000155885869 2.0073261132466 2.000857424827 1.9958322747606 2.0030509439533 2.0091949598274 2.0043220073693 2.0013577047131 1.9943252315145 2.0126914583222 1.9989349743099 2.0003830425034 2.0206161925678 1.9870333857576 2.0023697754428 2.0079461347508 2.0164206632644 1.9723786630374 2.0118630504958 2.0132034879493 2.0103258064145 1.9984544509625 2.0273307110076 1.9962310898659 1.9992679306473 2.018770841035 2.0227814804533 1.9849018418371 2.0143294554517 1.9923337032926 2.0044936096334 2.000333597185 2.0113487674344 1.9970985339362 1.9959612697788 1.9916714683408 1.9932224058129 1.9964669636402 2.0038308182893 2.023658806081 1.9885882654527 2.0141921800068 2.0045742355249 2.0043799433481 2.0098303033274 2.0016569280513 1.9901436490022 1.9818179334718 1.9966386325381 2.0196347183993 1.9887716072424 1.9770336913039 1.9855010874595 1.9897415770311 1.9771213102253 1.9975324373703 2.0009575129329 2.0130646621167 2.0034837471413 2.0134170700313 2.0150511756767 2.0083800983324 2.0038045302006 2.0097474665276 2.0148583850317 2.0146090730215 2.0017806181365 2.0124506407753 2.0164171212998 2.0104773299374 2.0130072312447 2.0202688798727 2.0175358882349 1.9805105320347 2.0097784241152 2.0055065221817 2.0148594507579 2.0033895076494 2.0139521548305 1.9986322082175 1.9644461235008 2.0240345126404 1.9689077587729 1.9686965476262 1.9796716896521 1.9675887605829 1.9715662351178 1.9777727073126 1.9978408367191 2.0244941866804 1.9739763052521 2.0011603799725 2.0029560151208 1.9883522410129 1.9957168761033 1.9830381767507 1.9883677117435 1.9700226152544 2.0346260073031 2.0089293896352 1.9943275878869 1.990374469176 2.0039509116875 1.9992903595663 2.0032655236228 2.0107363274058 2.010045517931 2.0033247615963 2.0138423830431 1.9792329854753 2.022162079052 2.0371970589646 2.0180934388787 2.0284922368334 2.0304090722689 1.9930796549943 1.9931332446275 2.0068471237151 2.0046285702001 2.0143022988414 1.999141812686 1.9947839517465 2.0153107968345 2.006780249942 2.0071148460867 2.0108898660748 1.9935550307344 1.9843107057398 2.0130000645198 2.0226756047766 2.0017529632803 1.9841310232219 2.0114631441742 2.0204038575347 2.0216034464841 2.0114459240642 1.9774544880197 1.9683294557393 1.9617712294484 2.0085966979639 2.0115121413997 1.9765067326303 2.0178511566486 2.0325548358442 2.0078113081855 2.0342715418285 2.0020069325496 2.0326986165481 2.0180549359444 2.0148865388865 2.0064407729141 1.9967611963203 2.0147840591906 2.0123794851876 2.0074494723322 1.9921694512598 2.0205034360582 2.030470875444 1.9883690555094 1.99301618188 1.9789488559853 2.0090538126419 1.9936404801436 2.0004191630769 2.0044257902628 2.001124520437 2.0009916769649 1.999074966798 1.9971846138155 2.0122031246324 2.0148651121402 1.9828058395805 2.0141244700357 2.0313623161286 2.0048931745024 2.0151897296427 1.9875201711822 1.9908030913138 1.9913520409755 1.9977093094353 2.0101097322333 2.0186506500365 2.017954321177 2.01445345908 1.9937077525591 1.966736981825 1.9850200737641 1.9801205889701 1.9828705687505 2.0345207862456 1.9964170179075 2.0023159013785 2.0128123204081 2.0043133463773 2.0115444745409 2.0043491675702 2.0140254002248 2.034976997699 1.9733681673892 1.9858971810798 1.9765415821823 1.9827152322235 2.0196439217197 1.9910900333567 1.9747797184512 2.0077422934143 2.0365276133671 2.0051012656487 1.9984873495629 2.0018093362044 2.0272022837941 2.0086588749746 2.0256489835487 1.9808407575923 2.0002367574819 2.0037079695171 1.9974802151182 2.0057590706607 2.0038219225168 1.9918608317274 2.0061025029309 2.0366481815647 2.0328486571907 2.0279450844146 2.0151161377876 2.0124672616943 2.0331558502416 2.0344322414643 2.0303522173747 1.9775357281052 2.0295419375303 2.0283608185487 2.0073459433305 2.0056051651475 2.0024092435384 2.0221026891376 2.0166281930889 2.0075557980225 1.9969519885508 1.9905716948843 2.0087014690631 2.0098894318267 2.0051131741888 2.0250440286808 2.0238631513151 2.0269951258865 2.0224088985368 1.9824337519604 1.9828601422617 1.9809278281541 1.9853594514799 1.9961476143747 2.0229022366487 2.0206996644995 2.0280111379306 2.0348532911178 1.9992822512085 2.0296878998738 2.014006508702 2.0017318729637 1.9793501786571 1.9841307206114 1.9910680511645 1.9786228599915 2.0007629046849 1.9900084986197 1.9939506416643 1.982754981601 1.9931747848404 1.9931384113144 1.9907498547318 1.9851174469052 2.0101793230036 2.0080917274717 2.0100422646165 2.0003466534195 2.0003685082154 2.0050833715224 2.0089968945182 2.0156488267849 2.0106983136477 2.0206152567539 2.0059540591884 2.0098908641088 2.0156386794983 2.0176098012891 2.0206569681377 1.9939486093682 1.9996533655119 2.0015159892786 2.0186501167021 2.0189437715804 1.9878137341403 1.994517459172 2.0226456354863 2.0094545384175 2.0082606121657 1.9818387999212 1.9792000249302 2.0090265980281 2.0090790890507 1.9933400862961 1.9893925836432 1.9923716696583 2.0056996647135 2.0045027303338 2.0107829615203 2.031685347759 2.0007920095882 1.9969092807347 2.0113416190492 2.0065103007551 1.9914749679558 2.0094468045404 2.0072328605891 1.9758956306141 1.987862093867 2.0097161287228 2.0124851323999 2.0119814387054 1.9897089382341 1.9915720449343 1.9801114240818 2.0114530184764 2.0068520893391 2.0008786686588 2.0059424353245 2.0020264538365 1.9861894313622 1.9965121771612 2.0211147527547 2.0277713179966 1.9850173362713 1.9904368637313 1.9902159184738 1.99025027437 1.9990145472972 2.0065966878945 2.0046919711733 2.0044397368462 2.0201457371789 2.0110411071207 1.9977784569001 2.03025990853 2.0036984209456 2.0100579557813 2.0089932158613 2.0315125443185 2.0005902209368 2.0371562624505 2.0020028590001 2.0014822947361 2.0320009752067 2.0170861257989 2.0145074260045 2.011132403961 1.9859734099398 1.9930407760475 1.9905428292098 1.9775354015156 1.9827374766481 1.9856832089704 2.0030130506971 2.0063346738573 2.0050436975927 2.0095264357287 2.028553733843 2.0019522258469 2.0121859346804 2.0111005261864 2.0262102028004 1.9738685398099 2.0113403832928 2.0129675304223 2.0106072831496 2.0073858607751 2.0062489071999 1.9829215035192 2.0112007887025 2.0143472305685 2.0037996534598 1.9962534734359 2.0037039463956 2.0184481818016 2.0017103951306 2.0097076655734 2.0041260575097 2.0079491987017 1.9950495713328 1.9974784011867 2.0003608461811 2.0083153486628 2.0315270605942 2.0085417893109 2.0063578234933 2.0066114338571 1.998023324123 2.0282429869527 2.0308646667416 2.0078838705945 2.0007579949755 1.9952607511683 1.9950283991039 2.0040017756608 1.9936929951741 1.9978593445785 2.0029042550535 2.0387523841076 2.0390584524635 2.0315198111952 1.9907378245902 2.0287256655918 1.9978166559791 2.0049713046395 1.9975624921388 2.0020510902133 2.0042447789489 2.0065642873563 2.0043743356678 2.0043188193685 2.002929664571 2.0015720382989 1.9968364436984 1.9963312658524 1.9988238426411 1.9890878750525 2.0248789788705 2.007219494598 2.0143784928322 2.0217156284133 2.0081271773774 2.0127744097886 2.0102743419229 2.0043669313963 2.005073531973 2.003787167903 2.0022215395606 2.0316631978902 2.0164057228086 1.9925579224657 2.0343943947965 2.0071633558771 2.0091843623679 2.007131535645 2.0092374957532 2.0077345099798 2.0112650163281 2